* GENERATED BY CHARMM-GUI (HTTP://WWW.CHARMM-GUI.ORG) V3.7 ON JUL, 11. 2024. JOB
* GET A DIFFERENT CONFORMATION FOR LIPIDS PENETRATING PROTEIN / CHOL
*  DATE:     7/11/24      0:32:32      CREATED BY USER: apache
*
     24900  EXT
         1         1  DOPE      N              -0.5378783017        0.7406384029       17.3265689027  MEMB      1               0.0000000000
         2         1  DOPE      HN1            -0.6628786574        0.6487405900       18.3549314511  MEMB      1               0.0000000000
         3         1  DOPE      HN2            -0.2244224690        1.7300592607       17.2602995500  MEMB      1               0.0000000000
         4         1  DOPE      HN3            -1.4013285451        0.4993385980       16.7994746135  MEMB      1               0.0000000000
         5         1  DOPE      C12             0.7393264946       -0.0336478146       17.1221318429  MEMB      1               0.0000000000
         6         1  DOPE      H12A            1.6536033782        0.5196078192       17.4259855234  MEMB      1               0.0000000000
         7         1  DOPE      H12B            0.7719046089       -0.1658573654       16.0195075680  MEMB      1               0.0000000000
         8         1  DOPE      C11             0.5599784999       -1.3999496646       17.8320598033  MEMB      1               0.0000000000
         9         1  DOPE      H11A            1.2751486262       -2.1339681807       17.4030265545  MEMB      1               0.0000000000
        10         1  DOPE      H11B           -0.3977365978       -1.9115889246       17.5968409812  MEMB      1               0.0000000000
        11         1  DOPE      P               2.0399546633       -1.5700043574       20.0385388059  MEMB      1               0.0000000000
        12         1  DOPE      O13             2.1002474598       -2.9808434718       20.4374004741  MEMB      1               0.0000000000
        13         1  DOPE      O14             2.2383672678       -0.5303000614       21.0891581522  MEMB      1               0.0000000000
        14         1  DOPE      O11             3.1335354731       -1.4026226779       18.8834620004  MEMB      1               0.0000000000
        15         1  DOPE      O12             0.6601263651       -1.2237420668       19.2706800150  MEMB      1               0.0000000000
        16         1  DOPE      C1              4.5261476444       -1.3624451131       19.1269380991  MEMB      1               0.0000000000
        17         1  DOPE      HA              4.8919783303       -2.2111772564       19.7434952408  MEMB      1               0.0000000000
        18         1  DOPE      HB              4.7536324621       -0.5134215177       19.8064457457  MEMB      1               0.0000000000
        19         1  DOPE      C2              5.3703378814       -1.2655589015       17.7973993527  MEMB      1               0.0000000000
        20         1  DOPE      HS              6.3791471747       -0.8701743935       18.0429523781  MEMB      1               0.0000000000
        21         1  DOPE      O21             4.7313957078       -0.3111493321       16.9359189526  MEMB      1               0.0000000000
        22         1  DOPE      C21             5.3881008852       -0.0392688834       15.8547437643  MEMB      1               0.0000000000
        23         1  DOPE      O22             6.5399776562       -0.4024405219       15.7172907824  MEMB      1               0.0000000000
        24         1  DOPE      C22             4.6614486808        0.8431152552       14.9118904832  MEMB      1               0.0000000000
        25         1  DOPE      H2R             3.8299579978        1.3499781870       15.4467123688  MEMB      1               0.0000000000
        26         1  DOPE      H2S             4.2051986447        0.3569437983       14.0231867856  MEMB      1               0.0000000000
        27         1  DOPE      C3              5.5216030130       -2.5908627859       17.1371188694  MEMB      1               0.0000000000
        28         1  DOPE      HX              5.9097333145       -3.2926737717       17.9059732586  MEMB      1               0.0000000000
        29         1  DOPE      HY              6.2072626915       -2.5658348757       16.2632964559  MEMB      1               0.0000000000
        30         1  DOPE      O31             4.2984021064       -3.0542474004       16.6447128431  MEMB      1               0.0000000000
        31         1  DOPE      C31             4.4549805130       -4.2890472185       16.0680372480  MEMB      1               0.0000000000
        32         1  DOPE      O32             5.6028215100       -4.7274390022       15.9520889500  MEMB      1               0.0000000000
        33         1  DOPE      C32             3.1205121779       -4.9517825049       15.5760953487  MEMB      1               0.0000000000
        34         1  DOPE      H2X             3.0436430253       -6.0545365581       15.6872079103  MEMB      1               0.0000000000
        35         1  DOPE      H2Y             2.2858789892       -4.5971144201       16.2179040701  MEMB      1               0.0000000000
        36         1  DOPE      C23             5.5870017719        1.9247796248       14.4123587146  MEMB      1               0.0000000000
        37         1  DOPE      H3R             6.3742428676        2.1231936273       15.1707810594  MEMB      1               0.0000000000
        38         1  DOPE      H3S             5.0644523700        2.8876262555       14.2274550548  MEMB      1               0.0000000000
        39         1  DOPE      C24             6.4843206694        1.5473344195       13.1638315913  MEMB      1               0.0000000000
        40         1  DOPE      H4R             6.7899188796        0.5051102343       13.3977111206  MEMB      1               0.0000000000
        41         1  DOPE      H4S             7.3321897789        2.2652742490       13.1626933091  MEMB      1               0.0000000000
        42         1  DOPE      C25             5.6409184633        1.5933373705       11.8443940807  MEMB      1               0.0000000000
        43         1  DOPE      H5R             5.4784544452        2.6385023888       11.5044579294  MEMB      1               0.0000000000
        44         1  DOPE      H5S             4.6644624983        1.1431993563       12.1240899111  MEMB      1               0.0000000000
        45         1  DOPE      C26             6.3400283471        0.8396132625       10.7106526898  MEMB      1               0.0000000000
        46         1  DOPE      H6R             7.2780886997        1.4136225755       10.5529278272  MEMB      1               0.0000000000
        47         1  DOPE      H6S             5.7278146809        0.9203967582        9.7870785171  MEMB      1               0.0000000000
        48         1  DOPE      C27             6.4602937467       -0.6424658371       10.9566676942  MEMB      1               0.0000000000
        49         1  DOPE      H7R             7.1189447896       -0.8397515755       11.8293521850  MEMB      1               0.0000000000
        50         1  DOPE      H7S             6.9923879627       -1.0717729726       10.0809438551  MEMB      1               0.0000000000
        51         1  DOPE      C28             5.0579653264       -1.3640935583       11.2081617524  MEMB      1               0.0000000000
        52         1  DOPE      H8R             4.2733019015       -0.9955239886       10.5133369176  MEMB      1               0.0000000000
        53         1  DOPE      H8S             4.7840944659       -1.1706129133       12.2673502782  MEMB      1               0.0000000000
        54         1  DOPE      C29             5.3426248019       -2.8671331428       10.9890314540  MEMB      1               0.0000000000
        55         1  DOPE      H9R             6.0683324542       -3.3138471621       11.6845853384  MEMB      1               0.0000000000
        56         1  DOPE      C210            4.7579876881       -3.6395245483       10.0473952747  MEMB      1               0.0000000000
        57         1  DOPE      H10R            5.1009047635       -4.6785659360        9.9342533080  MEMB      1               0.0000000000
        58         1  DOPE      C211            3.7958232503       -3.2631320482        8.9344561787  MEMB      1               0.0000000000
        59         1  DOPE      H11R            3.1546980225       -2.4117794591        9.2482676899  MEMB      1               0.0000000000
        60         1  DOPE      H11S            3.2010197322       -4.1423742639        8.6066406845  MEMB      1               0.0000000000
        61         1  DOPE      C212            4.3048104704       -2.6133719175        7.5779226017  MEMB      1               0.0000000000
        62         1  DOPE      H12R            4.6305769379       -1.5683597675        7.7680456670  MEMB      1               0.0000000000
        63         1  DOPE      H12S            3.5246030210       -2.6309328748        6.7871705414  MEMB      1               0.0000000000
        64         1  DOPE      C213            5.5412503301       -3.2209648507        6.9277774549  MEMB      1               0.0000000000
        65         1  DOPE      H13R            6.4598899827       -3.1020401327        7.5411934428  MEMB      1               0.0000000000
        66         1  DOPE      H13S            5.7068452146       -2.6130970523        6.0126833977  MEMB      1               0.0000000000
        67         1  DOPE      C214            5.2848155775       -4.6611612908        6.6588575390  MEMB      1               0.0000000000
        68         1  DOPE      H14R            4.2443448863       -4.8569130059        6.3220740351  MEMB      1               0.0000000000
        69         1  DOPE      H14S            5.5233651557       -5.2458312018        7.5729560914  MEMB      1               0.0000000000
        70         1  DOPE      C215            6.1733681819       -5.1124260402        5.5117385193  MEMB      1               0.0000000000
        71         1  DOPE      H15R            6.4311440477       -6.1832682382        5.6572378826  MEMB      1               0.0000000000
        72         1  DOPE      H15S            7.1668821826       -4.6164638349        5.5474100808  MEMB      1               0.0000000000
        73         1  DOPE      C216            5.4760852672       -4.8437025028        4.2308225487  MEMB      1               0.0000000000
        74         1  DOPE      H16R            5.3736607877       -3.7634939805        3.9921181428  MEMB      1               0.0000000000
        75         1  DOPE      H16S            4.4656529261       -5.3055826332        4.2270017998  MEMB      1               0.0000000000
        76         1  DOPE      C217            6.2275813703       -5.4441437845        2.9874314990  MEMB      1               0.0000000000
        77         1  DOPE      H17R            6.5823549140       -6.4589435616        3.2678562582  MEMB      1               0.0000000000
        78         1  DOPE      H17S            6.9590888328       -4.6118058304        2.9072315052  MEMB      1               0.0000000000
        79         1  DOPE      C218            5.5306041831       -5.5003778435        1.6417677682  MEMB      1               0.0000000000
        80         1  DOPE      H18R            5.0087852277       -4.5291267128        1.5050296820  MEMB      1               0.0000000000
        81         1  DOPE      H18S            4.6759645184       -6.2097994410        1.6166069781  MEMB      1               0.0000000000
        82         1  DOPE      H18T            6.2561275937       -5.6474699110        0.8133356925  MEMB      1               0.0000000000
        83         1  DOPE      C33             2.6614741146       -4.5461498572       14.1516025521  MEMB      1               0.0000000000
        84         1  DOPE      H3X             1.6821297833       -5.0435542559       13.9848859339  MEMB      1               0.0000000000
        85         1  DOPE      H3Y             3.3331162122       -5.1129007572       13.4718888488  MEMB      1               0.0000000000
        86         1  DOPE      C34             2.6942959439       -3.0370244694       13.8260460513  MEMB      1               0.0000000000
        87         1  DOPE      H4X             2.1541986373       -2.5108468000       14.6419827863  MEMB      1               0.0000000000
        88         1  DOPE      H4Y             3.7435623895       -2.6850489745       13.9233813623  MEMB      1               0.0000000000
        89         1  DOPE      C35             1.9049054702       -2.7287573140       12.5956160708  MEMB      1               0.0000000000
        90         1  DOPE      H5X             0.9799153210       -3.3436568095       12.5708605339  MEMB      1               0.0000000000
        91         1  DOPE      H5Y             2.5698684202       -3.0202869804       11.7546906124  MEMB      1               0.0000000000
        92         1  DOPE      C36             1.4460484082       -1.2595689793       12.5796311257  MEMB      1               0.0000000000
        93         1  DOPE      H6X             2.2643822117       -0.6142663388       12.9646443772  MEMB      1               0.0000000000
        94         1  DOPE      H6Y             0.6606383090       -1.2007573449       13.3632078285  MEMB      1               0.0000000000
        95         1  DOPE      C37             0.8388101599       -0.8704551407       11.2489714530  MEMB      1               0.0000000000
        96         1  DOPE      H7X             1.3963085807       -1.2602533421       10.3705788311  MEMB      1               0.0000000000
        97         1  DOPE      H7Y            -0.0582077905       -1.5256962698       11.2673801289  MEMB      1               0.0000000000
        98         1  DOPE      C38             0.5724208650        0.6376273756       11.2797343661  MEMB      1               0.0000000000
        99         1  DOPE      H8X             0.1602931090        0.9624205359       12.2590103921  MEMB      1               0.0000000000
       100         1  DOPE      H8Y            -0.1149789091        0.8976300340       10.4465470831  MEMB      1               0.0000000000
       101         1  DOPE      C39             1.7701820701        1.5350171061       11.1068680534  MEMB      1               0.0000000000
       102         1  DOPE      H9X             2.4450519509        1.6425545602       11.9688344669  MEMB      1               0.0000000000
       103         1  DOPE      C310            2.1406638042        2.2652906845       10.0247343848  MEMB      1               0.0000000000
       104         1  DOPE      H10X            3.0365419605        2.8970830005        9.9339548824  MEMB      1               0.0000000000
       105         1  DOPE      C311            1.4642354360        2.3767793172        8.7173285576  MEMB      1               0.0000000000
       106         1  DOPE      H11X            0.4328226712        1.9692155875        8.7836640826  MEMB      1               0.0000000000
       107         1  DOPE      H11Y            1.3520460769        3.4566642635        8.4815677835  MEMB      1               0.0000000000
       108         1  DOPE      C312            2.0805527941        1.4211589685        7.7190764615  MEMB      1               0.0000000000
       109         1  DOPE      H12X            1.3686046635        1.2880341302        6.8766230771  MEMB      1               0.0000000000
       110         1  DOPE      H12Y            2.1443470131        0.4285424360        8.2140152916  MEMB      1               0.0000000000
       111         1  DOPE      C313            3.4684132672        1.7967890715        7.1455113116  MEMB      1               0.0000000000
       112         1  DOPE      H13X            3.5947376696        2.8999456984        7.1079702851  MEMB      1               0.0000000000
       113         1  DOPE      H13Y            4.2052891436        1.3647725782        7.8559316435  MEMB      1               0.0000000000
       114         1  DOPE      C314            3.7044386156        1.2673572168        5.6899133379  MEMB      1               0.0000000000
       115         1  DOPE      H14X            2.9772612912        1.6926490450        4.9655786821  MEMB      1               0.0000000000
       116         1  DOPE      H14Y            3.4792767816        0.1954150826        5.8758246971  MEMB      1               0.0000000000
       117         1  DOPE      C315            5.2284018446        1.3884414413        5.3170608946  MEMB      1               0.0000000000
       118         1  DOPE      H15X            5.3347928015        2.4840068576        5.1662678110  MEMB      1               0.0000000000
       119         1  DOPE      H15Y            5.3846519806        0.7402531660        4.4283769504  MEMB      1               0.0000000000
       120         1  DOPE      C316            6.2734072329        0.8882854871        6.3733096598  MEMB      1               0.0000000000
       121         1  DOPE      H16X            5.9432418934       -0.0866843882        6.7913354802  MEMB      1               0.0000000000
       122         1  DOPE      H16Y            6.2467248343        1.6084371494        7.2188809789  MEMB      1               0.0000000000
       123         1  DOPE      C317            7.7680322857        0.8209917969        5.9110353277  MEMB      1               0.0000000000
       124         1  DOPE      H17X            8.0582487388        1.8157048074        5.5102340852  MEMB      1               0.0000000000
       125         1  DOPE      H17Y            8.4166107801        0.5290869625        6.7645334436  MEMB      1               0.0000000000
       126         1  DOPE      C318            7.9651592838       -0.2364801478        4.8452486228  MEMB      1               0.0000000000
       127         1  DOPE      H18X            9.0076798325       -0.4090234786        4.5021743993  MEMB      1               0.0000000000
       128         1  DOPE      H18Y            7.6182497818       -1.1975852600        5.2814279508  MEMB      1               0.0000000000
       129         1  DOPE      H18Z            7.3473405204        0.0255766841        3.9598405735  MEMB      1               0.0000000000
       130         2  23SM      N              -6.1730031495        4.8423510269       27.0720347789  MEMB      2               0.0000000000
       131         2  23SM      C15            -7.3365272769        4.6341539713       26.1512954155  MEMB      2               0.0000000000
       132         2  23SM      H15A           -8.2149431126        5.1021389574       26.5705511757  MEMB      2               0.0000000000
       133         2  23SM      H15B           -7.4524331157        3.5605680682       26.1707713427  MEMB      2               0.0000000000
       134         2  23SM      H15C           -7.2632483231        4.9911267566       25.1346339087  MEMB      2               0.0000000000
       135         2  23SM      C14            -6.3381931149        5.9941076555       27.9709693791  MEMB      2               0.0000000000
       136         2  23SM      H14A           -6.5134847692        6.8791592911       27.3773729651  MEMB      2               0.0000000000
       137         2  23SM      H14B           -5.4919155823        6.1802203535       28.6156214199  MEMB      2               0.0000000000
       138         2  23SM      H14C           -7.2578163936        5.8656132226       28.5224965170  MEMB      2               0.0000000000
       139         2  23SM      C13            -5.9179945874        3.6657216025       27.9365520892  MEMB      2               0.0000000000
       140         2  23SM      H13A           -6.8315679149        3.5441834223       28.4995905110  MEMB      2               0.0000000000
       141         2  23SM      H13B           -5.0101506371        3.8267924087       28.4989357918  MEMB      2               0.0000000000
       142         2  23SM      H13C           -5.7154865296        2.7685271414       27.3704844791  MEMB      2               0.0000000000
       143         2  23SM      C12            -4.8972143734        5.1993422273       26.3072152624  MEMB      2               0.0000000000
       144         2  23SM      H12A           -4.1110640341        5.4994619535       26.9841908568  MEMB      2               0.0000000000
       145         2  23SM      H12B           -5.1003519625        6.0472963705       25.6699486508  MEMB      2               0.0000000000
       146         2  23SM      C11            -4.3081494062        4.1439985781       25.2980426688  MEMB      2               0.0000000000
       147         2  23SM      H11A           -3.4219100680        4.3900081500       24.6748413069  MEMB      2               0.0000000000
       148         2  23SM      H11B           -5.2146805748        4.1066960062       24.6568477989  MEMB      2               0.0000000000
       149         2  23SM      P              -4.6097125202        1.5309997630       25.0311759831  MEMB      2               0.0000000000
       150         2  23SM      O13            -3.6518875066        0.5353609184       25.4961350902  MEMB      2               0.0000000000
       151         2  23SM      O14            -6.0598074290        1.2165972250       25.2956032357  MEMB      2               0.0000000000
       152         2  23SM      O11            -4.3619888258        1.8712115181       23.5669414777  MEMB      2               0.0000000000
       153         2  23SM      O12            -4.1913841720        2.7907865027       25.8740345874  MEMB      2               0.0000000000
       154         2  23SM      C1S            -5.3019975477        1.7993041437       22.5150280300  MEMB      2               0.0000000000
       155         2  23SM      H1S            -5.8351301727        2.7702175790       22.4289020464  MEMB      2               0.0000000000
       156         2  23SM      H1T            -6.0597078420        1.0131462739       22.7203371453  MEMB      2               0.0000000000
       157         2  23SM      NF             -3.5813161017        2.3900614136       20.7510355776  MEMB      2               0.0000000000
       158         2  23SM      HNF            -3.8903132189        2.9311121690       19.9727080796  MEMB      2               0.0000000000
       159         2  23SM      C2S            -4.6187515242        1.4504527581       21.1916027108  MEMB      2               0.0000000000
       160         2  23SM      H2S            -4.2196965483        0.4160905174       21.2635125996  MEMB      2               0.0000000000
       161         2  23SM      C3S            -5.7212339802        1.4418038697       20.0905857079  MEMB      2               0.0000000000
       162         2  23SM      H3S            -6.1385140416        2.4687520343       20.0159140800  MEMB      2               0.0000000000
       163         2  23SM      O3             -6.6827697534        0.4698861120       20.4577453232  MEMB      2               0.0000000000
       164         2  23SM      HO3            -6.3699876899       -0.0863205720       21.1749631369  MEMB      2               0.0000000000
       165         2  23SM      C4S            -5.0693980454        1.1013841440       18.7850269926  MEMB      2               0.0000000000
       166         2  23SM      H4S            -4.6955358273        0.0788184514       18.6282272121  MEMB      2               0.0000000000
       167         2  23SM      C5S            -4.9144291949        2.0066759370       17.7851166608  MEMB      2               0.0000000000
       168         2  23SM      H5S            -5.3353075899        3.0122605068       17.9322922048  MEMB      2               0.0000000000
       169         2  23SM      C6S            -4.2538765538        1.8356111409       16.4098198127  MEMB      2               0.0000000000
       170         2  23SM      H6S            -4.6388134651        2.6581280901       15.7698119472  MEMB      2               0.0000000000
       171         2  23SM      H6T            -4.4842637935        0.8216981421       16.0183832827  MEMB      2               0.0000000000
       172         2  23SM      C7S            -2.7355169118        2.1273022942       16.2504819261  MEMB      2               0.0000000000
       173         2  23SM      H7S            -2.2091673711        1.2471877054       16.6778878784  MEMB      2               0.0000000000
       174         2  23SM      H7T            -2.4284740586        2.9994765845       16.8664027208  MEMB      2               0.0000000000
       175         2  23SM      C8S            -2.5260997015        2.5090243558       14.8109316108  MEMB      2               0.0000000000
       176         2  23SM      H8S            -1.4739637090        2.8585126178       14.7388993754  MEMB      2               0.0000000000
       177         2  23SM      H8T            -3.1627042089        3.3651262924       14.5008586564  MEMB      2               0.0000000000
       178         2  23SM      C9S            -2.7315001619        1.3403373108       13.8019480335  MEMB      2               0.0000000000
       179         2  23SM      H9S            -3.8290653297        1.1776486388       13.8585515863  MEMB      2               0.0000000000
       180         2  23SM      H9T            -2.1139832165        0.5315109211       14.2478108573  MEMB      2               0.0000000000
       181         2  23SM      C10S           -2.4243631629        1.7409676261       12.3375493567  MEMB      2               0.0000000000
       182         2  23SM      H10S           -1.3445431606        2.0022500926       12.3439776472  MEMB      2               0.0000000000
       183         2  23SM      H10T           -2.9961327122        2.6615889948       12.0928927839  MEMB      2               0.0000000000
       184         2  23SM      C11S           -2.7315252228        0.4999145736       11.4696393949  MEMB      2               0.0000000000
       185         2  23SM      H11S           -3.7764194966        0.1944705436       11.6914976030  MEMB      2               0.0000000000
       186         2  23SM      H11T           -1.9971805613       -0.2510334929       11.8317662846  MEMB      2               0.0000000000
       187         2  23SM      C12S           -2.5093091936        0.7863922182        9.9853779915  MEMB      2               0.0000000000
       188         2  23SM      H12S           -1.4206211754        0.9090285507        9.8008795560  MEMB      2               0.0000000000
       189         2  23SM      H12T           -3.0560118297        1.7166610786        9.7207321181  MEMB      2               0.0000000000
       190         2  23SM      C13S           -3.0074844542       -0.4605959942        9.2380834323  MEMB      2               0.0000000000
       191         2  23SM      H13S           -4.0012571703       -0.7106961715        9.6672519937  MEMB      2               0.0000000000
       192         2  23SM      H13T           -2.2893600737       -1.2637525113        9.5092985080  MEMB      2               0.0000000000
       193         2  23SM      C14S           -2.9952900020       -0.4106028717        7.6635159677  MEMB      2               0.0000000000
       194         2  23SM      H14S           -2.5846739603       -1.3364859100        7.2069459981  MEMB      2               0.0000000000
       195         2  23SM      H14T           -2.3289273549        0.4370062463        7.3954862568  MEMB      2               0.0000000000
       196         2  23SM      C15S           -4.4184130838       -0.3402752505        7.0247507971  MEMB      2               0.0000000000
       197         2  23SM      H15S           -4.8336354577        0.6494047011        7.3118825641  MEMB      2               0.0000000000
       198         2  23SM      H15T           -4.9911625043       -1.1792251576        7.4746862839  MEMB      2               0.0000000000
       199         2  23SM      C16S           -4.3532498546       -0.5079031642        5.5399668190  MEMB      2               0.0000000000
       200         2  23SM      H16S           -4.2731398701       -1.5870856640        5.2884341531  MEMB      2               0.0000000000
       201         2  23SM      H16T           -3.4131139142       -0.0380356061        5.1798422154  MEMB      2               0.0000000000
       202         2  23SM      C17S           -5.5578410379       -0.0525039138        4.6743796161  MEMB      2               0.0000000000
       203         2  23SM      H17S           -6.0048570135        0.9462402401        4.8667544929  MEMB      2               0.0000000000
       204         2  23SM      H17T           -6.3968025233       -0.7276374661        4.9476179507  MEMB      2               0.0000000000
       205         2  23SM      C18S           -5.2796114420       -0.1949701129        3.1037402217  MEMB      2               0.0000000000
       206         2  23SM      H18S           -4.8012946975        0.7324921822        2.7224945561  MEMB      2               0.0000000000
       207         2  23SM      H18T           -6.2219583707       -0.3595556250        2.5387486130  MEMB      2               0.0000000000
       208         2  23SM      H18U           -4.5858066551       -1.0485671095        2.9477662421  MEMB      2               0.0000000000
       209         2  23SM      C1F            -2.4231747993        2.4331977267       21.3813622550  MEMB      2               0.0000000000
       210         2  23SM      OF             -1.9819893243        1.5778159706       22.2060339433  MEMB      2               0.0000000000
       211         2  23SM      C2F            -1.5130161674        3.5891670341       20.9507975848  MEMB      2               0.0000000000
       212         2  23SM      H2F            -1.4631732083        3.4536923883       19.8492157130  MEMB      2               0.0000000000
       213         2  23SM      H2G            -0.4803996878        3.4855915965       21.3474034924  MEMB      2               0.0000000000
       214         2  23SM      C3F            -2.0810132988        4.9752181633       21.4048002684  MEMB      2               0.0000000000
       215         2  23SM      H3F            -1.2514110935        5.7009237926       21.2653975468  MEMB      2               0.0000000000
       216         2  23SM      H3G            -2.3381751663        4.9655319002       22.4855848707  MEMB      2               0.0000000000
       217         2  23SM      C4F            -3.3071025884        5.5480071668       20.6118104252  MEMB      2               0.0000000000
       218         2  23SM      H4F            -3.4233806873        6.5402343694       21.0979030956  MEMB      2               0.0000000000
       219         2  23SM      H4G            -4.2233347133        5.0019692906       20.9227474780  MEMB      2               0.0000000000
       220         2  23SM      C5F            -3.0487278255        5.6390354316       19.1231990084  MEMB      2               0.0000000000
       221         2  23SM      H5F            -2.9551080102        4.5672388772       18.8460556376  MEMB      2               0.0000000000
       222         2  23SM      H5G            -2.0835265110        6.1016621499       18.8253999879  MEMB      2               0.0000000000
       223         2  23SM      C6F            -4.1677805071        6.2291035187       18.3508643686  MEMB      2               0.0000000000
       224         2  23SM      H6F            -4.3159643705        7.3270331004       18.4340078959  MEMB      2               0.0000000000
       225         2  23SM      H6G            -5.1586266667        5.7722410238       18.5602001761  MEMB      2               0.0000000000
       226         2  23SM      C7F            -4.0139588663        6.0837541067       16.8447488700  MEMB      2               0.0000000000
       227         2  23SM      H7F            -4.0491817819        5.0006853385       16.5997133658  MEMB      2               0.0000000000
       228         2  23SM      H7G            -3.0175383607        6.4339722063       16.5000542440  MEMB      2               0.0000000000
       229         2  23SM      C8F            -5.0126899485        6.9347554713       16.0510999395  MEMB      2               0.0000000000
       230         2  23SM      H8F            -4.9106172610        8.0078732289       16.3200240553  MEMB      2               0.0000000000
       231         2  23SM      H8G            -5.9790645487        6.5898451037       16.4771028264  MEMB      2               0.0000000000
       232         2  23SM      C9F            -5.0476581716        6.7283770501       14.4778586252  MEMB      2               0.0000000000
       233         2  23SM      H9F            -4.0158839649        6.8441415152       14.0824326638  MEMB      2               0.0000000000
       234         2  23SM      H9G            -5.6966591034        7.5473764275       14.1005537844  MEMB      2               0.0000000000
       235         2  23SM      C10F           -5.6573266237        5.4307679515       14.0026420138  MEMB      2               0.0000000000
       236         2  23SM      H10F           -6.7647438193        5.4764685108       14.0791899610  MEMB      2               0.0000000000
       237         2  23SM      H10G           -5.1252653257        4.6874385870       14.6340630804  MEMB      2               0.0000000000
       238         2  23SM      C11F           -5.4552181176        5.0396541851       12.5096892323  MEMB      2               0.0000000000
       239         2  23SM      H11F           -4.3492101767        5.0238085357       12.4056884355  MEMB      2               0.0000000000
       240         2  23SM      H11G           -5.9771356472        5.8171688454       11.9118650250  MEMB      2               0.0000000000
       241         2  23SM      C12F           -6.1359168749        3.6785301246       12.1117283029  MEMB      2               0.0000000000
       242         2  23SM      H12F           -7.1928013370        3.7939111205       12.4342233044  MEMB      2               0.0000000000
       243         2  23SM      H12G           -5.6239874994        3.0157231021       12.8417525197  MEMB      2               0.0000000000
       244         2  23SM      C13F           -5.8215625158        3.1612810104       10.7275009127  MEMB      2               0.0000000000
       245         2  23SM      H13F           -6.1655775939        2.1163371679       10.5723658921  MEMB      2               0.0000000000
       246         2  23SM      H13G           -4.7323175839        3.1975080618       10.5117369527  MEMB      2               0.0000000000
       247         2  23SM      C14F           -6.5418794559        3.9716749642        9.6748076615  MEMB      2               0.0000000000
       248         2  23SM      H14F           -6.2389766943        5.0399087172        9.7128554290  MEMB      2               0.0000000000
       249         2  23SM      H14G           -7.6287723924        3.8909150268        9.8903604730  MEMB      2               0.0000000000
       250         2  23SM      C15F           -6.3296975320        3.3676835364        8.2220768874  MEMB      2               0.0000000000
       251         2  23SM      H15F           -6.3722560693        2.2585067172        8.2693691967  MEMB      2               0.0000000000
       252         2  23SM      H15G           -5.3129405826        3.6671538417        7.8891447501  MEMB      2               0.0000000000
       253         2  23SM      C16F           -7.3550796831        3.8105474966        7.1884110272  MEMB      2               0.0000000000
       254         2  23SM      H16F           -7.2862433003        4.8995217700        6.9793247113  MEMB      2               0.0000000000
       255         2  23SM      H16G           -8.3737923804        3.6891595131        7.6148039972  MEMB      2               0.0000000000
       256         2  23SM      C17F           -7.4939002207        2.9723396088        5.8776118080  MEMB      2               0.0000000000
       257         2  23SM      H17F           -7.8216642616        1.9653376512        6.2135261158  MEMB      2               0.0000000000
       258         2  23SM      H17G           -6.5424032679        2.8696378820        5.3133175483  MEMB      2               0.0000000000
       259         2  23SM      C18F           -8.5069949251        3.5408784116        4.8644884064  MEMB      2               0.0000000000
       260         2  23SM      H18F           -8.2501136177        4.5617666659        4.5093541569  MEMB      2               0.0000000000
       261         2  23SM      H18G           -9.5257753309        3.5873722004        5.3052221625  MEMB      2               0.0000000000
       262         2  23SM      C19F           -8.8049919867        2.6255662531        3.6126875104  MEMB      2               0.0000000000
       263         2  23SM      H19F           -9.7392337402        3.0630552024        3.2002357856  MEMB      2               0.0000000000
       264         2  23SM      H19G           -8.9875149215        1.5912789670        3.9749817484  MEMB      2               0.0000000000
       265         2  23SM      C20F           -7.7692801327        2.5542026945        2.5521377095  MEMB      2               0.0000000000
       266         2  23SM      H20F           -7.8553604414        1.7117805407        1.8329460803  MEMB      2               0.0000000000
       267         2  23SM      H20G           -6.7878079301        2.4482230440        3.0618449594  MEMB      2               0.0000000000
       268         2  23SM      C21F           -7.9096662334        3.8341661278        1.7240234825  MEMB      2               0.0000000000
       269         2  23SM      H21F           -7.7353453051        4.7359682046        2.3490739432  MEMB      2               0.0000000000
       270         2  23SM      H21G           -8.9368159233        3.9540871230        1.3179414674  MEMB      2               0.0000000000
       271         2  23SM      C22F           -7.1343940667        3.7920065098        0.3931280054  MEMB      2               0.0000000000
       272         2  23SM      H22F           -7.4544797461        3.1282416631       -0.4383068925  MEMB      2               0.0000000000
       273         2  23SM      H22G           -6.0746011541        3.5434876743        0.6153847449  MEMB      2               0.0000000000
       274         2  23SM      C23F           -7.0735261392        5.0919463703       -0.4469657517  MEMB      2               0.0000000000
       275         2  23SM      H23F           -6.2956029339        5.0078830638       -1.2356916445  MEMB      2               0.0000000000
       276         2  23SM      H23G           -6.8102727558        5.9065741217        0.2611318209  MEMB      2               0.0000000000
       277         2  23SM      H23H           -8.0689421074        5.2204292095       -0.9233696375  MEMB      2               0.0000000000
       278         3  23SM      N              -4.2662715643       -5.9757197554       27.6210327329  MEMB      3               0.0000000000
       279         3  23SM      C15            -5.4713606171       -6.9107304500       27.5838551067  MEMB      3               0.0000000000
       280         3  23SM      H15A           -6.3490974790       -6.3417280065       27.8525820629  MEMB      3               0.0000000000
       281         3  23SM      H15B           -5.3217208987       -7.7379170002       28.2619189347  MEMB      3               0.0000000000
       282         3  23SM      H15C           -5.5407513518       -7.3118078032       26.5834942604  MEMB      3               0.0000000000
       283         3  23SM      C14            -4.0922752681       -5.8393259913       29.1061085444  MEMB      3               0.0000000000
       284         3  23SM      H14A           -3.7667240931       -6.8059996630       29.4610147367  MEMB      3               0.0000000000
       285         3  23SM      H14B           -5.0936022519       -5.6324655281       29.4538914565  MEMB      3               0.0000000000
       286         3  23SM      H14C           -3.4574224686       -5.0117635150       29.3862910850  MEMB      3               0.0000000000
       287         3  23SM      C13            -2.9588937681       -6.6232873874       27.1573854228  MEMB      3               0.0000000000
       288         3  23SM      H13A           -2.1456324188       -5.9721495595       27.4420353087  MEMB      3               0.0000000000
       289         3  23SM      H13B           -2.8999643216       -6.9852380159       26.1415512907  MEMB      3               0.0000000000
       290         3  23SM      H13C           -2.8905745624       -7.4934193784       27.7934692245  MEMB      3               0.0000000000
       291         3  23SM      C12            -4.3868049537       -4.6232728481       26.9106874395  MEMB      3               0.0000000000
       292         3  23SM      H12A           -3.5183978149       -4.0660539953       27.2297110418  MEMB      3               0.0000000000
       293         3  23SM      H12B           -5.1744192449       -4.0188026720       27.3357516506  MEMB      3               0.0000000000
       294         3  23SM      C11            -4.5278014106       -4.6472500854       25.3725020088  MEMB      3               0.0000000000
       295         3  23SM      H11A           -3.5881614956       -5.0254183724       24.9160081547  MEMB      3               0.0000000000
       296         3  23SM      H11B           -4.8014766850       -3.5964790817       25.1373357915  MEMB      3               0.0000000000
       297         3  23SM      P              -6.9678970330       -5.0098043128       24.5238731483  MEMB      3               0.0000000000
       298         3  23SM      O13            -7.9598337691       -6.1256586101       24.3760731109  MEMB      3               0.0000000000
       299         3  23SM      O14            -7.3746606274       -3.7645331995       25.2069111279  MEMB      3               0.0000000000
       300         3  23SM      O11            -6.6055085260       -4.5022856951       23.0879011544  MEMB      3               0.0000000000
       301         3  23SM      O12            -5.6160685887       -5.5582560126       25.0536702059  MEMB      3               0.0000000000
       302         3  23SM      C1S            -6.4444501260       -5.3651143864       21.9567903631  MEMB      3               0.0000000000
       303         3  23SM      H1S            -6.9124852668       -6.3661813272       22.0713728985  MEMB      3               0.0000000000
       304         3  23SM      H1T            -5.3651642783       -5.6082112527       21.8549718944  MEMB      3               0.0000000000
       305         3  23SM      NF             -6.3673884515       -3.5178958629       20.3398766222  MEMB      3               0.0000000000
       306         3  23SM      HNF            -7.0403517013       -2.7835594519       20.2965235054  MEMB      3               0.0000000000
       307         3  23SM      C2S            -7.0477403343       -4.7806479867       20.6425558559  MEMB      3               0.0000000000
       308         3  23SM      H2S            -6.8711165469       -5.4366495603       19.7634729012  MEMB      3               0.0000000000
       309         3  23SM      C3S            -8.4906114883       -4.5760483736       20.8050572074  MEMB      3               0.0000000000
       310         3  23SM      H3S            -8.7385436287       -3.9381379173       21.6802266122  MEMB      3               0.0000000000
       311         3  23SM      O3             -9.1733318021       -5.7542674361       20.9669973287  MEMB      3               0.0000000000
       312         3  23SM      HO3            -8.4718766420       -6.4081893619       20.9228755906  MEMB      3               0.0000000000
       313         3  23SM      C4S            -9.0086055278       -3.8469038089       19.6056070601  MEMB      3               0.0000000000
       314         3  23SM      H4S            -9.1382919818       -2.7556882607       19.6549025285  MEMB      3               0.0000000000
       315         3  23SM      C5S            -9.5900355288       -4.4076248113       18.4965294190  MEMB      3               0.0000000000
       316         3  23SM      H5S            -9.6491229955       -5.5059031464       18.5136619107  MEMB      3               0.0000000000
       317         3  23SM      C6S           -10.0949249142       -3.7409386022       17.2300614680  MEMB      3               0.0000000000
       318         3  23SM      H6S            -9.9532409355       -2.6448540009       17.3433979395  MEMB      3               0.0000000000
       319         3  23SM      H6T           -11.1990726759       -3.7868207803       17.1157226753  MEMB      3               0.0000000000
       320         3  23SM      C7S            -9.3753161794       -4.2765034905       16.0149573205  MEMB      3               0.0000000000
       321         3  23SM      H7S            -9.6238218497       -5.3552756352       15.9210594775  MEMB      3               0.0000000000
       322         3  23SM      H7T            -8.2698657731       -4.2430504852       16.1206977550  MEMB      3               0.0000000000
       323         3  23SM      C8S            -9.7723669989       -3.5548586087       14.7457948631  MEMB      3               0.0000000000
       324         3  23SM      H8S            -9.5305601090       -2.4721641340       14.8059873493  MEMB      3               0.0000000000
       325         3  23SM      H8T           -10.8586835400       -3.7242547541       14.5859745062  MEMB      3               0.0000000000
       326         3  23SM      C9S            -8.9704697403       -4.1429463794       13.5324065218  MEMB      3               0.0000000000
       327         3  23SM      H9S            -9.0603020176       -5.2489211704       13.5878273622  MEMB      3               0.0000000000
       328         3  23SM      H9T            -7.8940848717       -3.8732293427       13.5868992539  MEMB      3               0.0000000000
       329         3  23SM      C10S           -9.4717823995       -3.6198020412       12.1591567861  MEMB      3               0.0000000000
       330         3  23SM      H10S           -9.6404078417       -2.5234772697       12.0962392498  MEMB      3               0.0000000000
       331         3  23SM      H10T          -10.4412235971       -4.0757725627       11.8648861616  MEMB      3               0.0000000000
       332         3  23SM      C11S           -8.4439779988       -3.9958639091       11.1183134019  MEMB      3               0.0000000000
       333         3  23SM      H11S           -8.1569195669       -5.0685557158       11.1536778351  MEMB      3               0.0000000000
       334         3  23SM      H11T           -7.6061914234       -3.3226531644       11.3997777811  MEMB      3               0.0000000000
       335         3  23SM      C12S           -8.9086654497       -3.5497100192        9.7469436222  MEMB      3               0.0000000000
       336         3  23SM      H12S           -9.3202573574       -2.5381938919        9.9512673269  MEMB      3               0.0000000000
       337         3  23SM      H12T           -9.6289628455       -4.2907523909        9.3390850851  MEMB      3               0.0000000000
       338         3  23SM      C13S           -7.8343019079       -3.5511330460        8.6190900376  MEMB      3               0.0000000000
       339         3  23SM      H13S           -7.4715669716       -4.5674947540        8.3549819518  MEMB      3               0.0000000000
       340         3  23SM      H13T           -7.0176501301       -3.0221510831        9.1553538036  MEMB      3               0.0000000000
       341         3  23SM      C14S           -8.2593923781       -2.8404540324        7.3719353090  MEMB      3               0.0000000000
       342         3  23SM      H14S           -7.3812750955       -2.3159910281        6.9381492885  MEMB      3               0.0000000000
       343         3  23SM      H14T           -8.9677027272       -2.0586158906        7.7202831374  MEMB      3               0.0000000000
       344         3  23SM      C15S           -8.9661300221       -3.7374806515        6.2854459213  MEMB      3               0.0000000000
       345         3  23SM      H15S           -9.6892543581       -4.4250645267        6.7739542916  MEMB      3               0.0000000000
       346         3  23SM      H15T           -8.2073273437       -4.4044519261        5.8231809166  MEMB      3               0.0000000000
       347         3  23SM      C16S           -9.5704128302       -3.0661012172        5.0293732920  MEMB      3               0.0000000000
       348         3  23SM      H16S          -10.2485915754       -2.2224511301        5.2796722923  MEMB      3               0.0000000000
       349         3  23SM      H16T          -10.3698306041       -3.7383049956        4.6506991186  MEMB      3               0.0000000000
       350         3  23SM      C17S           -8.6028521091       -2.6034954661        3.9780656040  MEMB      3               0.0000000000
       351         3  23SM      H17S           -7.8508459422       -3.4001825400        3.7934108856  MEMB      3               0.0000000000
       352         3  23SM      H17T           -8.0311717232       -1.6748086767        4.1902991189  MEMB      3               0.0000000000
       353         3  23SM      C18S           -9.2877366325       -2.4613973241        2.6150978703  MEMB      3               0.0000000000
       354         3  23SM      H18S           -9.7970690171       -3.4308277604        2.4277313530  MEMB      3               0.0000000000
       355         3  23SM      H18T           -8.5159536144       -2.4217605553        1.8169105337  MEMB      3               0.0000000000
       356         3  23SM      H18U           -9.9882242250       -1.6166062726        2.4419896966  MEMB      3               0.0000000000
       357         3  23SM      C1F            -5.1313283179       -3.4552476995       19.8641061291  MEMB      3               0.0000000000
       358         3  23SM      OF             -4.3459378332       -4.3158890426       19.9414300681  MEMB      3               0.0000000000
       359         3  23SM      C2F            -4.6443703039       -2.2170609760       19.2212748631  MEMB      3               0.0000000000
       360         3  23SM      H2F            -3.7069630087       -2.4583600052       18.6759645131  MEMB      3               0.0000000000
       361         3  23SM      H2G            -4.4142505352       -1.4138423871       19.9535356043  MEMB      3               0.0000000000
       362         3  23SM      C3F            -5.7576433332       -1.5643711551       18.3553791048  MEMB      3               0.0000000000
       363         3  23SM      H3F            -6.5151358913       -1.0459175089       18.9812638704  MEMB      3               0.0000000000
       364         3  23SM      H3G            -6.3771204065       -2.1670816111       17.6573039111  MEMB      3               0.0000000000
       365         3  23SM      C4F            -5.0485666338       -0.4698961642       17.4804079498  MEMB      3               0.0000000000
       366         3  23SM      H4F            -4.1438694478       -0.9016800348       17.0014438405  MEMB      3               0.0000000000
       367         3  23SM      H4G            -4.5642039689        0.2748300204       18.1475634132  MEMB      3               0.0000000000
       368         3  23SM      C5F            -5.9312965443        0.3025546993       16.4374522590  MEMB      3               0.0000000000
       369         3  23SM      H5F            -5.2280929097        0.8836024101       15.8032523708  MEMB      3               0.0000000000
       370         3  23SM      H5G            -6.3841177189        1.1241545808       17.0326388853  MEMB      3               0.0000000000
       371         3  23SM      C6F            -7.0037565413       -0.2755062528       15.4868996741  MEMB      3               0.0000000000
       372         3  23SM      H6F            -7.6398654512        0.5690207284       15.1456354117  MEMB      3               0.0000000000
       373         3  23SM      H6G            -7.5632736838       -1.0017349848       16.1144769448  MEMB      3               0.0000000000
       374         3  23SM      C7F            -6.5283413136       -1.0454653353       14.1638281731  MEMB      3               0.0000000000
       375         3  23SM      H7F            -7.3214624236       -1.7041175537       13.7497543811  MEMB      3               0.0000000000
       376         3  23SM      H7G            -5.5672819090       -1.5755291806       14.3362169512  MEMB      3               0.0000000000
       377         3  23SM      C8F            -6.1914617228       -0.1568665414       12.9230281799  MEMB      3               0.0000000000
       378         3  23SM      H8F            -5.5965353088        0.7153757498       13.2688275075  MEMB      3               0.0000000000
       379         3  23SM      H8G            -7.0442898312        0.3440675553       12.4169947432  MEMB      3               0.0000000000
       380         3  23SM      C9F            -5.4659317092       -0.9268042435       11.8193392014  MEMB      3               0.0000000000
       381         3  23SM      H9F            -6.2095191050       -1.7239695967       11.6050348607  MEMB      3               0.0000000000
       382         3  23SM      H9G            -4.4826967932       -1.2012222400       12.2578198979  MEMB      3               0.0000000000
       383         3  23SM      C10F           -5.2550296674       -0.1505345419       10.5177712121  MEMB      3               0.0000000000
       384         3  23SM      H10F           -4.7859782786        0.8306185859       10.7450373394  MEMB      3               0.0000000000
       385         3  23SM      H10G           -6.2532034142        0.0689567165       10.0821178318  MEMB      3               0.0000000000
       386         3  23SM      C11F           -4.5252415610       -0.8531284015        9.3733761634  MEMB      3               0.0000000000
       387         3  23SM      H11F           -4.9712929277       -1.8616662723        9.2384297144  MEMB      3               0.0000000000
       388         3  23SM      H11G           -3.4819677322       -0.9637305120        9.7389833974  MEMB      3               0.0000000000
       389         3  23SM      C12F           -4.6339007338       -0.0233803377        8.0637844604  MEMB      3               0.0000000000
       390         3  23SM      H12F           -4.1958593307        0.9913933491        8.1763688200  MEMB      3               0.0000000000
       391         3  23SM      H12G           -5.7236113491        0.0695906761        7.8683149305  MEMB      3               0.0000000000
       392         3  23SM      C13F           -4.0350790980       -0.8085626449        6.8378993347  MEMB      3               0.0000000000
       393         3  23SM      H13F           -4.1991458904       -0.2179096746        5.9113285862  MEMB      3               0.0000000000
       394         3  23SM      H13G           -4.7017960882       -1.6972714703        6.8354335162  MEMB      3               0.0000000000
       395         3  23SM      C14F           -2.5619250462       -1.1909837720        6.9828113738  MEMB      3               0.0000000000
       396         3  23SM      H14F           -2.4565301299       -1.6908808572        7.9693801394  MEMB      3               0.0000000000
       397         3  23SM      H14G           -1.9022744507       -0.2981493744        6.9377704490  MEMB      3               0.0000000000
       398         3  23SM      C15F           -2.0494662484       -2.3378222584        6.0993453549  MEMB      3               0.0000000000
       399         3  23SM      H15F           -2.7139136048       -3.2155015891        5.9493129664  MEMB      3               0.0000000000
       400         3  23SM      H15G           -1.1343397170       -2.6800273276        6.6282691428  MEMB      3               0.0000000000
       401         3  23SM      C16F           -1.5843000985       -1.9239152660        4.6502715170  MEMB      3               0.0000000000
       402         3  23SM      H16F           -0.9723800693       -2.8119938369        4.3834551408  MEMB      3               0.0000000000
       403         3  23SM      H16G           -1.0295117041       -0.9683365775        4.7660303356  MEMB      3               0.0000000000
       404         3  23SM      C17F           -2.6940874537       -1.8226750121        3.5842827430  MEMB      3               0.0000000000
       405         3  23SM      H17F           -2.2344572717       -1.5013997388        2.6251985628  MEMB      3               0.0000000000
       406         3  23SM      H17G           -3.3913968439       -1.0151200041        3.8940176280  MEMB      3               0.0000000000
       407         3  23SM      C18F           -3.4336069710       -3.0828114376        3.4098160912  MEMB      3               0.0000000000
       408         3  23SM      H18F           -3.9832805427       -3.2430532044        4.3619201911  MEMB      3               0.0000000000
       409         3  23SM      H18G           -2.7736365078       -3.9645624136        3.2639571709  MEMB      3               0.0000000000
       410         3  23SM      C19F           -4.3708321478       -2.8988112503        2.1911667888  MEMB      3               0.0000000000
       411         3  23SM      H19F           -3.7776922262       -2.4888319069        1.3459327040  MEMB      3               0.0000000000
       412         3  23SM      H19G           -5.2419826409       -2.2451204545        2.4104979844  MEMB      3               0.0000000000
       413         3  23SM      C20F           -4.8887484738       -4.2408635242        1.6874126244  MEMB      3               0.0000000000
       414         3  23SM      H20F           -5.9270493377       -4.3710411109        2.0606509190  MEMB      3               0.0000000000
       415         3  23SM      H20G           -4.1783887631       -5.0263121483        2.0232424845  MEMB      3               0.0000000000
       416         3  23SM      C21F           -5.0954786941       -4.3611043334        0.2012972199  MEMB      3               0.0000000000
       417         3  23SM      H21F           -4.1901160596       -4.3659826218       -0.4426104958  MEMB      3               0.0000000000
       418         3  23SM      H21G           -5.7388220096       -3.5232692976       -0.1428879562  MEMB      3               0.0000000000
       419         3  23SM      C22F           -5.8305105478       -5.6545217997       -0.0898936376  MEMB      3               0.0000000000
       420         3  23SM      H22F           -6.0834810285       -5.7443408554       -1.1679753184  MEMB      3               0.0000000000
       421         3  23SM      H22G           -6.8291773171       -5.5036240729        0.3729400043  MEMB      3               0.0000000000
       422         3  23SM      C23F           -5.2350845564       -6.9610215120        0.5527358025  MEMB      3               0.0000000000
       423         3  23SM      H23F           -4.1404806426       -6.8722667999        0.7209205804  MEMB      3               0.0000000000
       424         3  23SM      H23G           -5.3754369641       -7.8918566148       -0.0373219457  MEMB      3               0.0000000000
       425         3  23SM      H23H           -5.7047100459       -7.0879825182        1.5515619726  MEMB      3               0.0000000000
       426         4  CHL1      C3              1.7305370527        7.5508885324       17.2789750000  MEMB      4               0.0000000000
       427         4  CHL1      H3              2.8005053127        7.5037989740       16.9835550000  MEMB      4               0.0000000000
       428         4  CHL1      O3              1.6482661273        7.6374914276       18.7210250000  MEMB      4               0.0000000000
       429         4  CHL1      H3'             0.7069312192        7.4731961763       18.8132150000  MEMB      4               0.0000000000
       430         4  CHL1      C4              1.0015109682        8.7748528914       16.7595450000  MEMB      4               0.0000000000
       431         4  CHL1      H4A            -0.0562684018        8.9194523236       17.0669950000  MEMB      4               0.0000000000
       432         4  CHL1      H4B             1.5434596785        9.6392883162       17.1992850000  MEMB      4               0.0000000000
       433         4  CHL1      C5              1.0020352098        8.7093326955       15.2507950000  MEMB      4               0.0000000000
       434         4  CHL1      C6              1.5578969583        9.6341567034       14.4517850000  MEMB      4               0.0000000000
       435         4  CHL1      H6              1.8100333795       10.6207498389       14.8677850000  MEMB      4               0.0000000000
       436         4  CHL1      C7              1.5467863472        9.5500914947       12.9341550000  MEMB      4               0.0000000000
       437         4  CHL1      H7A             1.2489123511       10.5364287998       12.5185450000  MEMB      4               0.0000000000
       438         4  CHL1      H7B             2.5418135360        9.2486888057       12.5425050000  MEMB      4               0.0000000000
       439         4  CHL1      C8              0.5451256953        8.5151865332       12.3284850000  MEMB      4               0.0000000000
       440         4  CHL1      H8             -0.4724347091        8.9610422602       12.3383650000  MEMB      4               0.0000000000
       441         4  CHL1      C14             0.8582477173        8.2676374718       10.9302250000  MEMB      4               0.0000000000
       442         4  CHL1      H14             1.8996187175        7.8990041407       10.8120550000  MEMB      4               0.0000000000
       443         4  CHL1      C15             0.7661433336        9.4107061031        9.9043450000  MEMB      4               0.0000000000
       444         4  CHL1      H15A           -0.1358586349       10.0096293172       10.1533850000  MEMB      4               0.0000000000
       445         4  CHL1      H15B            1.6754878762       10.0420999305        9.9978550000  MEMB      4               0.0000000000
       446         4  CHL1      C16             0.8883856953        8.7616105977        8.5207750000  MEMB      4               0.0000000000
       447         4  CHL1      H16A            0.1258327958        9.2130977540        7.8507050000  MEMB      4               0.0000000000
       448         4  CHL1      H16B            1.8171046809        9.0584691814        7.9881650000  MEMB      4               0.0000000000
       449         4  CHL1      C17             0.6353624376        7.2163279603        8.8678650000  MEMB      4               0.0000000000
       450         4  CHL1      H17             1.6463317082        6.7916450615        9.0464950000  MEMB      4               0.0000000000
       451         4  CHL1      C13            -0.0142100308        7.2151656709       10.1948950000  MEMB      4               0.0000000000
       452         4  CHL1      C18            -1.4909239845        7.6832016383       10.0359150000  MEMB      4               0.0000000000
       453         4  CHL1      H18A           -2.1132767149        6.8749117899        9.5958350000  MEMB      4               0.0000000000
       454         4  CHL1      H18B           -1.9891231072        7.7675364377       11.0253650000  MEMB      4               0.0000000000
       455         4  CHL1      H18C           -1.5399159685        8.5648303738        9.3616450000  MEMB      4               0.0000000000
       456         4  CHL1      C12             0.1406432681        5.9000543931       10.9026550000  MEMB      4               0.0000000000
       457         4  CHL1      H12A           -0.5868638766        5.1303429989       10.5670750000  MEMB      4               0.0000000000
       458         4  CHL1      H12B            1.1823733550        5.5633469379       10.7136050000  MEMB      4               0.0000000000
       459         4  CHL1      C11            -0.0732060692        6.0280014521       12.4577850000  MEMB      4               0.0000000000
       460         4  CHL1      H11A           -1.1685400224        6.1766323210       12.5693950000  MEMB      4               0.0000000000
       461         4  CHL1      H11B            0.1918654768        5.0508041287       12.9151050000  MEMB      4               0.0000000000
       462         4  CHL1      C9              0.7102872320        7.2050228643       13.1343750000  MEMB      4               0.0000000000
       463         4  CHL1      H9              1.7837042858        6.9253511640       13.0720950000  MEMB      4               0.0000000000
       464         4  CHL1      C10             0.4358253868        7.4167427208       14.6162950000  MEMB      4               0.0000000000
       465         4  CHL1      C19            -1.1185871786        7.3420218198       14.7830250000  MEMB      4               0.0000000000
       466         4  CHL1      H19A           -1.5596010066        6.3261347395       14.6947050000  MEMB      4               0.0000000000
       467         4  CHL1      H19B           -1.5007833907        7.9070707871       15.6599350000  MEMB      4               0.0000000000
       468         4  CHL1      H19C           -1.5842052481        7.9568168043       13.9833050000  MEMB      4               0.0000000000
       469         4  CHL1      C1              1.0163454658        6.1310102249       15.3426750000  MEMB      4               0.0000000000
       470         4  CHL1      H1A             0.3373963277        5.2598564605       15.2224550000  MEMB      4               0.0000000000
       471         4  CHL1      H1B             2.0226660641        5.7771405053       15.0321650000  MEMB      4               0.0000000000
       472         4  CHL1      C2              1.0561927144        6.2153573291       16.9201550000  MEMB      4               0.0000000000
       473         4  CHL1      H2A             1.6328417148        5.3749271848       17.3622650000  MEMB      4               0.0000000000
       474         4  CHL1      H2B             0.0344218285        6.1425014353       17.3502750000  MEMB      4               0.0000000000
       475         4  CHL1      C20             0.0104005785        6.4454256907        7.6221550000  MEMB      4               0.0000000000
       476         4  CHL1      H20            -1.0136475493        6.7895119550        7.3628250000  MEMB      4               0.0000000000
       477         4  CHL1      C21            -0.1143699605        4.8483817034        7.8386950000  MEMB      4               0.0000000000
       478         4  CHL1      H21A           -0.8666961208        4.5507800170        8.6001150000  MEMB      4               0.0000000000
       479         4  CHL1      H21B            0.8840950908        4.5573814325        8.2294850000  MEMB      4               0.0000000000
       480         4  CHL1      H21C           -0.2820826362        4.2838480682        6.8966250000  MEMB      4               0.0000000000
       481         4  CHL1      C22             0.9467618001        6.6693438724        6.4952350000  MEMB      4               0.0000000000
       482         4  CHL1      H22A            1.4676884738        7.6450189398        6.6001150000  MEMB      4               0.0000000000
       483         4  CHL1      H22B            1.7269007635        5.8842558706        6.5919150000  MEMB      4               0.0000000000
       484         4  CHL1      C23             0.2145897647        6.5605211291        5.1697150000  MEMB      4               0.0000000000
       485         4  CHL1      H23A           -0.7151089643        5.9543230870        5.2197750000  MEMB      4               0.0000000000
       486         4  CHL1      H23B           -0.1271515966        7.5905908782        4.9320250000  MEMB      4               0.0000000000
       487         4  CHL1      C24             0.9776346081        5.9669407957        3.9387950000  MEMB      4               0.0000000000
       488         4  CHL1      H24A            1.1209051483        4.9231185882        4.2912650000  MEMB      4               0.0000000000
       489         4  CHL1      H24B            0.2543774555        5.9288643206        3.0963250000  MEMB      4               0.0000000000
       490         4  CHL1      C25             2.2366252787        6.7108687961        3.5450950000  MEMB      4               0.0000000000
       491         4  CHL1      H25             2.8927858257        6.7826557697        4.4387450000  MEMB      4               0.0000000000
       492         4  CHL1      C26             3.0431732902        6.1880169306        2.3348550000  MEMB      4               0.0000000000
       493         4  CHL1      H26A            3.8826275013        6.8485322701        2.0293250000  MEMB      4               0.0000000000
       494         4  CHL1      H26B            3.4535382352        5.1832890355        2.5724750000  MEMB      4               0.0000000000
       495         4  CHL1      H26C            2.3625003211        5.9360056235        1.4937250000  MEMB      4               0.0000000000
       496         4  CHL1      C27             2.0187645285        8.2330039921        3.2268650000  MEMB      4               0.0000000000
       497         4  CHL1      H27A            1.3462550143        8.5962515906        4.0331650000  MEMB      4               0.0000000000
       498         4  CHL1      H27B            2.9797642315        8.7572271477        3.0372050000  MEMB      4               0.0000000000
       499         4  CHL1      H27C            1.5600482078        8.3576932317        2.2226950000  MEMB      4               0.0000000000
       500         5  DOPE      N               6.5750169127        5.9500697991       19.0204769220  MEMB      5               0.0000000000
       501         5  DOPE      HN1             6.8171954387        6.8695761707       19.4417342655  MEMB      5               0.0000000000
       502         5  DOPE      HN2             7.1604986144        5.7614906553       18.1818774242  MEMB      5               0.0000000000
       503         5  DOPE      HN3             5.5842369281        5.8061788273       18.7389624447  MEMB      5               0.0000000000
       504         5  DOPE      C12             6.8049716250        4.8661849756       20.0079071985  MEMB      5               0.0000000000
       505         5  DOPE      H12A            5.8432490508        4.7498345738       20.5518496495  MEMB      5               0.0000000000
       506         5  DOPE      H12B            7.5260354181        5.3637470894       20.6911495156  MEMB      5               0.0000000000
       507         5  DOPE      C11             7.2283998111        3.6000268252       19.3110971220  MEMB      5               0.0000000000
       508         5  DOPE      H11A            6.8352487318        3.5160311256       18.2753857919  MEMB      5               0.0000000000
       509         5  DOPE      H11B            6.6430342692        2.8714120834       19.9117540258  MEMB      5               0.0000000000
       510         5  DOPE      P               9.2755284503        2.1937430344       18.7332429771  MEMB      5               0.0000000000
       511         5  DOPE      O13             8.3328401415        1.0822759866       18.8400279516  MEMB      5               0.0000000000
       512         5  DOPE      O14            10.5654824481        2.0467684631       19.4022394092  MEMB      5               0.0000000000
       513         5  DOPE      O11             9.4527033101        2.6689756597       17.2611961435  MEMB      5               0.0000000000
       514         5  DOPE      O12             8.5942547356        3.4061079756       19.4238123019  MEMB      5               0.0000000000
       515         5  DOPE      C1             10.1036564687        3.9924772455       17.0683291512  MEMB      5               0.0000000000
       516         5  DOPE      HA             11.0086762874        4.0428371296       17.7107651215  MEMB      5               0.0000000000
       517         5  DOPE      HB              9.4526536796        4.8685591575       17.2756860342  MEMB      5               0.0000000000
       518         5  DOPE      C2             10.6241947580        4.1006096741       15.6195597082  MEMB      5               0.0000000000
       519         5  DOPE      HS             10.8998757460        5.1676166750       15.4787861945  MEMB      5               0.0000000000
       520         5  DOPE      O21             9.6174694474        3.8606225810       14.6232099931  MEMB      5               0.0000000000
       521         5  DOPE      C21             8.5161249555        4.6635293331       14.7183238455  MEMB      5               0.0000000000
       522         5  DOPE      O22             8.3667715154        5.6564037543       15.3462548893  MEMB      5               0.0000000000
       523         5  DOPE      C22             7.3394422789        4.0479094331       13.9145063266  MEMB      5               0.0000000000
       524         5  DOPE      H2R             6.5952816212        3.6475624048       14.6358027860  MEMB      5               0.0000000000
       525         5  DOPE      H2S             7.7650662830        3.1994898030       13.3371423033  MEMB      5               0.0000000000
       526         5  DOPE      C3             11.7461817167        3.0748269240       15.2730764677  MEMB      5               0.0000000000
       527         5  DOPE      HX             12.5516822541        3.1763182848       16.0314888372  MEMB      5               0.0000000000
       528         5  DOPE      HY             12.1605580754        3.3934506189       14.2927232589  MEMB      5               0.0000000000
       529         5  DOPE      O31            11.3591674951        1.6954730788       15.2066055235  MEMB      5               0.0000000000
       530         5  DOPE      C31            11.0604313052        1.2551076857       13.9461917729  MEMB      5               0.0000000000
       531         5  DOPE      O32            11.1914100775        1.8713769895       12.9239260834  MEMB      5               0.0000000000
       532         5  DOPE      C32            10.3005319130       -0.0992829164       14.1362280506  MEMB      5               0.0000000000
       533         5  DOPE      H2X            10.9022038940       -0.8087497521       14.7436558554  MEMB      5               0.0000000000
       534         5  DOPE      H2Y             9.4377332438        0.1911230422       14.7730668810  MEMB      5               0.0000000000
       535         5  DOPE      C23             6.7712435575        5.1380208894       13.0572815771  MEMB      5               0.0000000000
       536         5  DOPE      H3R             6.6189313326        6.0731786505       13.6374557554  MEMB      5               0.0000000000
       537         5  DOPE      H3S             5.7298186475        4.8776350325       12.7710046186  MEMB      5               0.0000000000
       538         5  DOPE      C24             7.3837917608        5.6329596325       11.7577546692  MEMB      5               0.0000000000
       539         5  DOPE      H4R             8.4426850695        5.9113983084       11.9462694471  MEMB      5               0.0000000000
       540         5  DOPE      H4S             6.7970911533        6.5318646528       11.4712710052  MEMB      5               0.0000000000
       541         5  DOPE      C25             7.3563651657        4.5707879897       10.6329890489  MEMB      5               0.0000000000
       542         5  DOPE      H5R             6.3820704053        4.0492884978       10.7474834744  MEMB      5               0.0000000000
       543         5  DOPE      H5S             8.1307946568        3.8517684005       10.9759042557  MEMB      5               0.0000000000
       544         5  DOPE      C26             7.7409924530        5.0017574298        9.2618247379  MEMB      5               0.0000000000
       545         5  DOPE      H6R             8.8358880955        5.1899152720        9.2508182904  MEMB      5               0.0000000000
       546         5  DOPE      H6S             7.3012244127        5.9839409690        8.9857086591  MEMB      5               0.0000000000
       547         5  DOPE      C27             7.5075835025        3.8901383694        8.2106083476  MEMB      5               0.0000000000
       548         5  DOPE      H7R             7.7293261115        2.9160593785        8.6967371169  MEMB      5               0.0000000000
       549         5  DOPE      H7S             8.0741756861        4.1904055829        7.3033410324  MEMB      5               0.0000000000
       550         5  DOPE      C28             5.9971903374        3.7871260331        7.7696456964  MEMB      5               0.0000000000
       551         5  DOPE      H8R             5.3823621581        3.4803296150        8.6426773112  MEMB      5               0.0000000000
       552         5  DOPE      H8S             5.9294690961        2.8428966549        7.1881258703  MEMB      5               0.0000000000
       553         5  DOPE      C29             5.3736361737        5.0065752157        7.2122974111  MEMB      5               0.0000000000
       554         5  DOPE      H9R             5.3065045300        5.8417972733        7.9249667910  MEMB      5               0.0000000000
       555         5  DOPE      C210            4.9160357823        5.2212294331        5.9601417004  MEMB      5               0.0000000000
       556         5  DOPE      H10R            4.6367465813        6.2438661193        5.6665240566  MEMB      5               0.0000000000
       557         5  DOPE      C211            5.0715616259        4.1502526211        4.8952224368  MEMB      5               0.0000000000
       558         5  DOPE      H11R            4.7535464435        3.1534064069        5.2686996041  MEMB      5               0.0000000000
       559         5  DOPE      H11S            6.1633478504        4.1517973261        4.6895008146  MEMB      5               0.0000000000
       560         5  DOPE      C212            4.2293683632        4.5179002759        3.6736709210  MEMB      5               0.0000000000
       561         5  DOPE      H12R            3.1641886202        4.5628225334        3.9862328573  MEMB      5               0.0000000000
       562         5  DOPE      H12S            4.2852314449        3.7327348390        2.8896322700  MEMB      5               0.0000000000
       563         5  DOPE      C213            4.6091895504        5.8483495110        3.0034804478  MEMB      5               0.0000000000
       564         5  DOPE      H13R            4.3056197168        6.7263825063        3.6127627648  MEMB      5               0.0000000000
       565         5  DOPE      H13S            3.9999684280        6.0009803496        2.0870342607  MEMB      5               0.0000000000
       566         5  DOPE      C214            6.0378621578        5.9511990672        2.4361744231  MEMB      5               0.0000000000
       567         5  DOPE      H14R            6.1696852838        5.0340288274        1.8231948959  MEMB      5               0.0000000000
       568         5  DOPE      H14S            6.7508465225        5.9154436839        3.2874642141  MEMB      5               0.0000000000
       569         5  DOPE      C215            6.2909285661        7.3170477107        1.6562608053  MEMB      5               0.0000000000
       570         5  DOPE      H15R            6.0989478550        8.2103374488        2.2883190623  MEMB      5               0.0000000000
       571         5  DOPE      H15S            5.4778915663        7.3556442607        0.9000838811  MEMB      5               0.0000000000
       572         5  DOPE      C216            7.6215186283        7.4929946085        0.9741570488  MEMB      5               0.0000000000
       573         5  DOPE      H16R            8.5108080813        7.6518132259        1.6208895109  MEMB      5               0.0000000000
       574         5  DOPE      H16S            7.4113548558        8.4472786288        0.4454851576  MEMB      5               0.0000000000
       575         5  DOPE      C217            7.9501214936        6.4175291525       -0.0813335698  MEMB      5               0.0000000000
       576         5  DOPE      H17R            7.3645702745        6.4602140388       -1.0245341029  MEMB      5               0.0000000000
       577         5  DOPE      H17S            7.7627035568        5.4195636815        0.3695100251  MEMB      5               0.0000000000
       578         5  DOPE      C218            9.3796867485        6.4683727284       -0.4658628498  MEMB      5               0.0000000000
       579         5  DOPE      H18R            9.7277036844        5.4968940987       -0.8774869598  MEMB      5               0.0000000000
       580         5  DOPE      H18S           10.0188026097        6.7420796559        0.4007024717  MEMB      5               0.0000000000
       581         5  DOPE      H18T            9.6247929602        7.2713240822       -1.1935401893  MEMB      5               0.0000000000
       582         5  DOPE      C33             9.9355339966       -0.7077949460       12.7840547475  MEMB      5               0.0000000000
       583         5  DOPE      H3X             9.7041074522       -1.7632483266       13.0424750073  MEMB      5               0.0000000000
       584         5  DOPE      H3Y            10.8164112841       -0.7047617140       12.1070268837  MEMB      5               0.0000000000
       585         5  DOPE      C34             8.7278069170       -0.0405904393       12.1079102766  MEMB      5               0.0000000000
       586         5  DOPE      H4X             7.8136222830       -0.2371500200       12.7078701843  MEMB      5               0.0000000000
       587         5  DOPE      H4Y             8.8457339649        1.0622475629       12.0433910990  MEMB      5               0.0000000000
       588         5  DOPE      C35             8.3664312901       -0.6299588879       10.6968316069  MEMB      5               0.0000000000
       589         5  DOPE      H5X             8.0979277084       -1.7078101167       10.6752973755  MEMB      5               0.0000000000
       590         5  DOPE      H5Y             9.1696339710       -0.7424443360        9.9375333919  MEMB      5               0.0000000000
       591         5  DOPE      C36             7.1055792888        0.0397198789       10.0195413917  MEMB      5               0.0000000000
       592         5  DOPE      H6X             7.2126233658        1.1453331260        9.9975966344  MEMB      5               0.0000000000
       593         5  DOPE      H6Y             6.1906440335       -0.0514938635       10.6431551756  MEMB      5               0.0000000000
       594         5  DOPE      C37             6.7648358333       -0.4525064719        8.6644774325  MEMB      5               0.0000000000
       595         5  DOPE      H7X             6.1805501547       -1.3955198943        8.7249506622  MEMB      5               0.0000000000
       596         5  DOPE      H7Y             5.9428974557        0.1713503436        8.2527229700  MEMB      5               0.0000000000
       597         5  DOPE      C38             7.9133553033       -0.4669023733        7.5822935411  MEMB      5               0.0000000000
       598         5  DOPE      H8X             8.8694023478       -0.9049417424        7.9406449403  MEMB      5               0.0000000000
       599         5  DOPE      H8Y             8.1566444028        0.6169251247        7.5610935397  MEMB      5               0.0000000000
       600         5  DOPE      C39             7.7347880796       -1.0227456431        6.2376151604  MEMB      5               0.0000000000
       601         5  DOPE      H9X             7.8957831957       -2.1086703227        6.3072430745  MEMB      5               0.0000000000
       602         5  DOPE      C310            7.4567297836       -0.4116501820        5.0656518926  MEMB      5               0.0000000000
       603         5  DOPE      H10X            7.1587086170       -1.0313003556        4.2070387583  MEMB      5               0.0000000000
       604         5  DOPE      C311            7.2433066503        1.0975765448        4.9004162935  MEMB      5               0.0000000000
       605         5  DOPE      H11X            6.1930265299        1.2457431998        4.5698418825  MEMB      5               0.0000000000
       606         5  DOPE      H11Y            7.1932743927        1.5836796256        5.8981744127  MEMB      5               0.0000000000
       607         5  DOPE      C312            8.3033269943        1.8804056054        4.0115231520  MEMB      5               0.0000000000
       608         5  DOPE      H12X            9.2870963380        1.7908827137        4.5199558539  MEMB      5               0.0000000000
       609         5  DOPE      H12Y            8.0281736937        2.9567257120        4.0236384259  MEMB      5               0.0000000000
       610         5  DOPE      C313            8.3818035201        1.5501125836        2.4938254737  MEMB      5               0.0000000000
       611         5  DOPE      H13X            9.1995794771        2.0522133038        1.9339522329  MEMB      5               0.0000000000
       612         5  DOPE      H13Y            8.7046655751        0.4931933040        2.3797965387  MEMB      5               0.0000000000
       613         5  DOPE      C314            7.0187159502        1.6393765761        1.8423375673  MEMB      5               0.0000000000
       614         5  DOPE      H14X            6.7519180881        2.7076834606        1.6944835842  MEMB      5               0.0000000000
       615         5  DOPE      H14Y            6.2662343813        1.2857832236        2.5792659753  MEMB      5               0.0000000000
       616         5  DOPE      C315            6.9260618828        0.9256453363        0.4632562762  MEMB      5               0.0000000000
       617         5  DOPE      H15X            5.9168264945        0.4647714451        0.4052904541  MEMB      5               0.0000000000
       618         5  DOPE      H15Y            7.7161015711        0.1699563695        0.2655386306  MEMB      5               0.0000000000
       619         5  DOPE      C316            7.0034354077        1.8607957243       -0.7587995405  MEMB      5               0.0000000000
       620         5  DOPE      H16X            6.1405970587        2.5259396388       -0.5410513447  MEMB      5               0.0000000000
       621         5  DOPE      H16Y            6.7152240999        1.3116299770       -1.6805771593  MEMB      5               0.0000000000
       622         5  DOPE      C317            8.2694985427        2.5987371057       -1.0031360926  MEMB      5               0.0000000000
       623         5  DOPE      H17X            8.0396249387        3.5642843829       -1.5023341920  MEMB      5               0.0000000000
       624         5  DOPE      H17Y            8.7913443399        3.0770005084       -0.1468300576  MEMB      5               0.0000000000
       625         5  DOPE      C318            9.3425592686        1.8078708357       -1.6515375310  MEMB      5               0.0000000000
       626         5  DOPE      H18X           10.1033925949        2.4719393415       -2.1146434489  MEMB      5               0.0000000000
       627         5  DOPE      H18Y            9.8529155476        1.0955081274       -0.9686057642  MEMB      5               0.0000000000
       628         5  DOPE      H18Z            9.1242808280        1.1986103830       -2.5545756348  MEMB      5               0.0000000000
       629         6  DOPC      N               0.1160143964       -9.7040404355       20.5393678115  MEMB      6               0.0000000000
       630         6  DOPC      C12             1.0472411018      -10.8731834930       20.4565993334  MEMB      6               0.0000000000
       631         6  DOPC      H12A            0.4647585024      -11.7746787192       20.5766842080  MEMB      6               0.0000000000
       632         6  DOPC      H12B            1.8096730350      -10.8205708596       21.2197044619  MEMB      6               0.0000000000
       633         6  DOPC      C13            -0.8395373965       -9.8346162598       19.3607211681  MEMB      6               0.0000000000
       634         6  DOPC      H13A           -1.6628975276       -9.1367381660       19.3987234586  MEMB      6               0.0000000000
       635         6  DOPC      H13B           -0.2755335237       -9.6474325856       18.4589108604  MEMB      6               0.0000000000
       636         6  DOPC      H13C           -1.1342043398      -10.8712451882       19.4312338437  MEMB      6               0.0000000000
       637         6  DOPC      C14             0.8294875850       -8.3606650930       20.5407648412  MEMB      6               0.0000000000
       638         6  DOPC      H14A            1.4447878752       -8.2229662006       19.6639270713  MEMB      6               0.0000000000
       639         6  DOPC      H14B            0.1239480671       -7.5480120505       20.4501614174  MEMB      6               0.0000000000
       640         6  DOPC      H14C            1.3612000000       -8.1320485152       21.4525853232  MEMB      6               0.0000000000
       641         6  DOPC      C15            -0.7035034138       -9.6850231313       21.7770272441  MEMB      6               0.0000000000
       642         6  DOPC      H15A           -1.2722796343       -8.7674723258       21.7454994654  MEMB      6               0.0000000000
       643         6  DOPC      H15B            0.0209363658       -9.6479866498       22.5771616340  MEMB      6               0.0000000000
       644         6  DOPC      H15C           -1.3477426623      -10.5512510522       21.7453226586  MEMB      6               0.0000000000
       645         6  DOPC      C11             1.9402806447      -11.0298176312       19.1163440668  MEMB      6               0.0000000000
       646         6  DOPC      H11A            2.4589462783      -11.9951763303       19.2990718885  MEMB      6               0.0000000000
       647         6  DOPC      H11B            1.2930434974      -11.2094594691       18.2313955888  MEMB      6               0.0000000000
       648         6  DOPC      P               2.7513584848       -9.1782817844       17.4354750804  MEMB      6               0.0000000000
       649         6  DOPC      O13             3.9290455326       -8.2724778791       17.5223942875  MEMB      6               0.0000000000
       650         6  DOPC      O14             1.4025954971       -8.5903715789       17.2838400034  MEMB      6               0.0000000000
       651         6  DOPC      O12             2.7924192205       -9.9573678373       18.7862574114  MEMB      6               0.0000000000
       652         6  DOPC      O11             2.9093054709      -10.2016314993       16.1812087507  MEMB      6               0.0000000000
       653         6  DOPC      C1              4.0233479319      -11.1023305299       16.0948236230  MEMB      6               0.0000000000
       654         6  DOPC      HA              4.3102882154      -11.6050592416       17.0431116082  MEMB      6               0.0000000000
       655         6  DOPC      HB              4.8889191559      -10.4407590785       15.8770374342  MEMB      6               0.0000000000
       656         6  DOPC      C2              3.9573915686      -12.1453744866       14.9281054237  MEMB      6               0.0000000000
       657         6  DOPC      HS              4.9782315222      -12.5531663209       14.7671310298  MEMB      6               0.0000000000
       658         6  DOPC      O21             3.4990091343      -11.5687214316       13.7254819466  MEMB      6               0.0000000000
       659         6  DOPC      C21             4.4626824131      -10.9057024728       12.9891245971  MEMB      6               0.0000000000
       660         6  DOPC      O22             5.6684463424      -10.9657245247       13.2042447487  MEMB      6               0.0000000000
       661         6  DOPC      C22             3.7675808548      -10.1446786146       11.8339134868  MEMB      6               0.0000000000
       662         6  DOPC      H2R             2.7045767819      -10.4665420508       11.8612479892  MEMB      6               0.0000000000
       663         6  DOPC      H2S             4.1673109087      -10.4068497582       10.8310160774  MEMB      6               0.0000000000
       664         6  DOPC      C3              2.8900477386      -13.2216514111       15.3213405081  MEMB      6               0.0000000000
       665         6  DOPC      HX              3.0715836703      -13.5035779960       16.3805302565  MEMB      6               0.0000000000
       666         6  DOPC      HY              3.0148374460      -14.0887101625       14.6379973891  MEMB      6               0.0000000000
       667         6  DOPC      O31             1.5557540742      -12.7400189251       15.0732293242  MEMB      6               0.0000000000
       668         6  DOPC      C31             0.6341360199      -13.3411918586       15.6321622199  MEMB      6               0.0000000000
       669         6  DOPC      O32             0.7121050545      -14.3713801670       16.3047895643  MEMB      6               0.0000000000
       670         6  DOPC      C32            -0.7513897413      -12.7739910179       15.5033937188  MEMB      6               0.0000000000
       671         6  DOPC      H2X            -1.3388901113      -13.0695372531       16.3988355447  MEMB      6               0.0000000000
       672         6  DOPC      H2Y            -0.7179000142      -11.6680065057       15.4034049430  MEMB      6               0.0000000000
       673         6  DOPC      C23             3.7495650018       -8.6099975981       11.8715243766  MEMB      6               0.0000000000
       674         6  DOPC      H3R             4.8006580873       -8.2502482467       11.8817569732  MEMB      6               0.0000000000
       675         6  DOPC      H3S             3.3328088035       -8.4136421594       12.8825041914  MEMB      6               0.0000000000
       676         6  DOPC      C24             2.9792134417       -7.9847410823       10.6568799698  MEMB      6               0.0000000000
       677         6  DOPC      H4R             1.9319808111       -8.3556918437       10.6524008501  MEMB      6               0.0000000000
       678         6  DOPC      H4S             3.4190635361       -8.4146668162        9.7316684461  MEMB      6               0.0000000000
       679         6  DOPC      C25             3.0998904683       -6.4280160172       10.5228904461  MEMB      6               0.0000000000
       680         6  DOPC      H5R             4.1727918350       -6.1530632183       10.4356862555  MEMB      6               0.0000000000
       681         6  DOPC      H5S             2.6735190211       -6.0257173415       11.4666514652  MEMB      6               0.0000000000
       682         6  DOPC      C26             2.3063254732       -5.8866232101        9.3269213672  MEMB      6               0.0000000000
       683         6  DOPC      H6R             2.0469754337       -4.8152319123        9.4654125970  MEMB      6               0.0000000000
       684         6  DOPC      H6S             1.2992472402       -6.3319619788        9.4745291379  MEMB      6               0.0000000000
       685         6  DOPC      C27             2.7910235282       -6.2080740869        7.9482390272  MEMB      6               0.0000000000
       686         6  DOPC      H7R             3.0026639864       -7.2936836112        8.0530288554  MEMB      6               0.0000000000
       687         6  DOPC      H7S             3.7373275831       -5.6627519034        7.7446370908  MEMB      6               0.0000000000
       688         6  DOPC      C28             1.7860069139       -5.9500868186        6.8010951638  MEMB      6               0.0000000000
       689         6  DOPC      H8R             2.2322472255       -5.9744238296        5.7839426200  MEMB      6               0.0000000000
       690         6  DOPC      H8S             1.4114807921       -4.9206251664        6.9861876268  MEMB      6               0.0000000000
       691         6  DOPC      C29             0.6267151488       -6.9486005338        6.9127005050  MEMB      6               0.0000000000
       692         6  DOPC      H9R            -0.1068817914       -6.7111075274        7.6971951989  MEMB      6               0.0000000000
       693         6  DOPC      C210            0.3147369367       -8.0340515367        6.1906365400  MEMB      6               0.0000000000
       694         6  DOPC      H10R           -0.5838104390       -8.5247724499        6.5928872053  MEMB      6               0.0000000000
       695         6  DOPC      C211            0.9562759476       -8.6858508625        4.9610968923  MEMB      6               0.0000000000
       696         6  DOPC      H11R            0.9282225573       -7.9407226672        4.1374965930  MEMB      6               0.0000000000
       697         6  DOPC      H11S            0.4049411386       -9.5677033639        4.5703458979  MEMB      6               0.0000000000
       698         6  DOPC      C212            2.4798266658       -9.0180363145        5.2060786940  MEMB      6               0.0000000000
       699         6  DOPC      H12R            2.9528568631       -8.1128252934        5.6432936726  MEMB      6               0.0000000000
       700         6  DOPC      H12S            2.9037011943       -9.1518407114        4.1878712308  MEMB      6               0.0000000000
       701         6  DOPC      C213            2.8033904329      -10.2182072821        6.0466837722  MEMB      6               0.0000000000
       702         6  DOPC      H13R            2.1253547686      -10.9601513662        5.5732841293  MEMB      6               0.0000000000
       703         6  DOPC      H13S            2.3456698310      -10.0059208481        7.0365054290  MEMB      6               0.0000000000
       704         6  DOPC      C214            4.2693613725      -10.6969684775        6.2360817016  MEMB      6               0.0000000000
       705         6  DOPC      H14R            4.1995295601      -11.7069452336        6.6936748748  MEMB      6               0.0000000000
       706         6  DOPC      H14S            4.7337503229      -10.1305397504        7.0714397118  MEMB      6               0.0000000000
       707         6  DOPC      C215            5.0941977015      -10.5957843082        4.9985755780  MEMB      6               0.0000000000
       708         6  DOPC      H15R            6.1751934757      -10.7084506899        5.2289556378  MEMB      6               0.0000000000
       709         6  DOPC      H15S            4.8916864722       -9.5888152012        4.5751093995  MEMB      6               0.0000000000
       710         6  DOPC      C216            4.8485808474      -11.5565530532        3.8414828549  MEMB      6               0.0000000000
       711         6  DOPC      H16R            3.8889119135      -11.2965768010        3.3457322724  MEMB      6               0.0000000000
       712         6  DOPC      H16S            4.7334113217      -12.5818628344        4.2535469384  MEMB      6               0.0000000000
       713         6  DOPC      C217            5.9596660853      -11.5947959056        2.7421892362  MEMB      6               0.0000000000
       714         6  DOPC      H17R            5.6323110196      -12.3916672086        2.0406493987  MEMB      6               0.0000000000
       715         6  DOPC      H17S            6.9653673245      -11.8852951525        3.1143394994  MEMB      6               0.0000000000
       716         6  DOPC      C218            6.2399691175      -10.2488570794        2.0741531593  MEMB      6               0.0000000000
       717         6  DOPC      H18R            5.2490764078       -9.7909720512        1.8672862925  MEMB      6               0.0000000000
       718         6  DOPC      H18S            6.6551479715      -10.5372967872        1.0848355764  MEMB      6               0.0000000000
       719         6  DOPC      H18T            6.9028588034       -9.5001489345        2.5582339102  MEMB      6               0.0000000000
       720         6  DOPC      C33            -1.5153730638      -13.4416494323       14.3839531588  MEMB      6               0.0000000000
       721         6  DOPC      H3X            -2.5459689244      -13.0414402146       14.4936144262  MEMB      6               0.0000000000
       722         6  DOPC      H3Y            -1.6042517392      -14.5485360246       14.4189345079  MEMB      6               0.0000000000
       723         6  DOPC      C34            -1.1303602022      -13.1809640233       12.9281521208  MEMB      6               0.0000000000
       724         6  DOPC      H4X            -2.0461562192      -13.4366971786       12.3534882720  MEMB      6               0.0000000000
       725         6  DOPC      H4Y            -0.4237178929      -13.9903624841       12.6455716620  MEMB      6               0.0000000000
       726         6  DOPC      C35            -0.7028047897      -11.8275089206       12.5531853807  MEMB      6               0.0000000000
       727         6  DOPC      H5X             0.2928572335      -11.6708746775       13.0205649771  MEMB      6               0.0000000000
       728         6  DOPC      H5Y            -1.5134788710      -11.1782487345       12.9476338494  MEMB      6               0.0000000000
       729         6  DOPC      C36            -0.7695953675      -11.7198971615       11.0435766202  MEMB      6               0.0000000000
       730         6  DOPC      H6X             0.0768759996      -12.3355674158       10.6710754209  MEMB      6               0.0000000000
       731         6  DOPC      H6Y            -1.7519615457      -11.9947272680       10.6034102294  MEMB      6               0.0000000000
       732         6  DOPC      C37            -0.4546055576      -10.3617668068       10.5105438558  MEMB      6               0.0000000000
       733         6  DOPC      H7X            -1.1197453979       -9.6313346529       11.0188540240  MEMB      6               0.0000000000
       734         6  DOPC      H7Y             0.5987521889      -10.0250609202       10.6172555198  MEMB      6               0.0000000000
       735         6  DOPC      C38            -0.8110841373      -10.3128532563        9.0341137658  MEMB      6               0.0000000000
       736         6  DOPC      H8X            -0.4833566749       -9.3175215298        8.6650197519  MEMB      6               0.0000000000
       737         6  DOPC      H8Y            -1.9181248686      -10.3917449732        8.9835397724  MEMB      6               0.0000000000
       738         6  DOPC      C39            -0.0245106572      -11.2524199421        8.1865746838  MEMB      6               0.0000000000
       739         6  DOPC      H9X             1.0504720033      -11.0957563276        8.3594010321  MEMB      6               0.0000000000
       740         6  DOPC      C310           -0.4193118718      -12.2289954545        7.3235977373  MEMB      6               0.0000000000
       741         6  DOPC      H10X            0.4534814077      -12.7039455475        6.8517357845  MEMB      6               0.0000000000
       742         6  DOPC      C311           -1.8059131910      -12.7157896262        6.9314498762  MEMB      6               0.0000000000
       743         6  DOPC      H11X           -2.6076923542      -12.1234310519        7.4219420328  MEMB      6               0.0000000000
       744         6  DOPC      H11Y           -1.9084408451      -13.7526975596        7.3169772974  MEMB      6               0.0000000000
       745         6  DOPC      C312           -2.0602988421      -12.9035488520        5.4149797214  MEMB      6               0.0000000000
       746         6  DOPC      H12X           -2.1256377769      -11.9444514418        4.8580378958  MEMB      6               0.0000000000
       747         6  DOPC      H12Y           -3.0289854998      -13.4340474979        5.2944021133  MEMB      6               0.0000000000
       748         6  DOPC      C313           -1.0730115031      -13.7887434019        4.6063360477  MEMB      6               0.0000000000
       749         6  DOPC      H13X           -0.0718873400      -13.3228308201        4.7287983303  MEMB      6               0.0000000000
       750         6  DOPC      H13Y           -1.0348684357      -14.7927665029        5.0804708325  MEMB      6               0.0000000000
       751         6  DOPC      C314           -1.3438407165      -14.0150954575        3.0664123981  MEMB      6               0.0000000000
       752         6  DOPC      H14X           -2.1349196059      -14.7746228836        2.8885547673  MEMB      6               0.0000000000
       753         6  DOPC      H14Y           -1.7163610059      -13.0132584860        2.7633074863  MEMB      6               0.0000000000
       754         6  DOPC      C315           -0.2056271996      -14.4228647215        2.1687585950  MEMB      6               0.0000000000
       755         6  DOPC      H15X           -0.5824124799      -14.4791371694        1.1251177826  MEMB      6               0.0000000000
       756         6  DOPC      H15Y            0.0773085492      -15.4672319709        2.4208805962  MEMB      6               0.0000000000
       757         6  DOPC      C316            1.0911509205      -13.5405508377        2.4112963079  MEMB      6               0.0000000000
       758         6  DOPC      H16X            1.3759027887      -13.6416687648        3.4804135869  MEMB      6               0.0000000000
       759         6  DOPC      H16Y            1.9537774673      -14.0276366545        1.9083595692  MEMB      6               0.0000000000
       760         6  DOPC      C317            0.9244091283      -11.9329355736        2.1603473445  MEMB      6               0.0000000000
       761         6  DOPC      H17X           -0.1508596226      -11.7625559245        2.3819078469  MEMB      6               0.0000000000
       762         6  DOPC      H17Y            1.5129911214      -11.6026731023        3.0428550754  MEMB      6               0.0000000000
       763         6  DOPC      C318            1.4432455318      -11.4195348863        0.7868738868  MEMB      6               0.0000000000
       764         6  DOPC      H18X            0.7030799422      -11.6915557144        0.0042625517  MEMB      6               0.0000000000
       765         6  DOPC      H18Y            1.4959782133      -10.3098499358        0.7986802116  MEMB      6               0.0000000000
       766         6  DOPC      H18Z            2.4797647553      -11.8092729078        0.6971343075  MEMB      6               0.0000000000
       767         7  DOPC      N               6.0827175439       -5.3023177031       19.7946236112  MEMB      7               0.0000000000
       768         7  DOPC      C12             6.6490252703       -4.9859673768       18.3923959079  MEMB      7               0.0000000000
       769         7  DOPC      H12A            6.4969106275       -3.9187892777       18.3261239692  MEMB      7               0.0000000000
       770         7  DOPC      H12B            6.0237018268       -5.3178101691       17.5767667915  MEMB      7               0.0000000000
       771         7  DOPC      C13             4.7715343004       -4.6419596110       19.8756634927  MEMB      7               0.0000000000
       772         7  DOPC      H13A            4.0809459630       -4.8519423244       19.0722989964  MEMB      7               0.0000000000
       773         7  DOPC      H13B            4.3311624363       -4.7590659213       20.8548257329  MEMB      7               0.0000000000
       774         7  DOPC      H13C            5.0794486776       -3.6077410998       19.8311565743  MEMB      7               0.0000000000
       775         7  DOPC      C14             7.0300401731       -4.8770099644       20.8395268822  MEMB      7               0.0000000000
       776         7  DOPC      H14A            7.7684967197       -5.6650681467       20.8463273024  MEMB      7               0.0000000000
       777         7  DOPC      H14B            7.5209662968       -3.9585093064       20.5536106589  MEMB      7               0.0000000000
       778         7  DOPC      H14C            6.5764312804       -4.7882433872       21.8156208986  MEMB      7               0.0000000000
       779         7  DOPC      C15             6.0190245798       -6.8041110279       19.8648836296  MEMB      7               0.0000000000
       780         7  DOPC      H15A            5.1876068601       -7.1693479573       19.2802924715  MEMB      7               0.0000000000
       781         7  DOPC      H15B            5.8010254496       -7.1639254152       20.8595745909  MEMB      7               0.0000000000
       782         7  DOPC      H15C            6.9214702545       -7.2338956774       19.4558887151  MEMB      7               0.0000000000
       783         7  DOPC      C11             8.0572450651       -5.3856459185       18.0567697388  MEMB      7               0.0000000000
       784         7  DOPC      H11A            8.1706511966       -6.4783727019       18.2223236997  MEMB      7               0.0000000000
       785         7  DOPC      H11B            8.3377827221       -5.2529875507       16.9899889059  MEMB      7               0.0000000000
       786         7  DOPC      P              10.6154001348       -5.1205082331       18.4929152130  MEMB      7               0.0000000000
       787         7  DOPC      O13            10.6373616871       -6.5334709609       18.2292847951  MEMB      7               0.0000000000
       788         7  DOPC      O14            11.5186594820       -4.6042652028       19.5828852122  MEMB      7               0.0000000000
       789         7  DOPC      O12             9.0893630171       -4.6639351420       18.7608024459  MEMB      7               0.0000000000
       790         7  DOPC      O11            10.7796155966       -4.3162947504       17.1102490751  MEMB      7               0.0000000000
       791         7  DOPC      C1             10.9663772559       -2.9326926366       17.2185378913  MEMB      7               0.0000000000
       792         7  DOPC      HA             11.9437857133       -2.7787469555       17.7238046998  MEMB      7               0.0000000000
       793         7  DOPC      HB             10.1847152167       -2.4823329082       17.8669987418  MEMB      7               0.0000000000
       794         7  DOPC      C2             11.0048099413       -2.3120498441       15.7638521831  MEMB      7               0.0000000000
       795         7  DOPC      HS             10.9404129198       -1.2031276753       15.7854341212  MEMB      7               0.0000000000
       796         7  DOPC      O21             9.9315104228       -2.7453560259       15.0140546057  MEMB      7               0.0000000000
       797         7  DOPC      C21             8.6830919637       -2.7014910073       15.5024406636  MEMB      7               0.0000000000
       798         7  DOPC      O22             8.3341243131       -1.9639097456       16.3913001510  MEMB      7               0.0000000000
       799         7  DOPC      C22             7.7673695332       -3.6264500445       14.8017699753  MEMB      7               0.0000000000
       800         7  DOPC      H2R             6.7182721474       -3.4137055403       15.0991847585  MEMB      7               0.0000000000
       801         7  DOPC      H2S             7.8712974932       -4.7120336575       15.0139684037  MEMB      7               0.0000000000
       802         7  DOPC      C3             12.3757226019       -2.6031553145       15.0513928568  MEMB      7               0.0000000000
       803         7  DOPC      HX             12.3040131829       -3.7099742187       14.9871208888  MEMB      7               0.0000000000
       804         7  DOPC      HY             13.2287242108       -2.3525969342       15.7176730157  MEMB      7               0.0000000000
       805         7  DOPC      O31            12.5307033878       -1.9556276034       13.8256174761  MEMB      7               0.0000000000
       806         7  DOPC      C31            12.0558342923       -2.4589834461       12.6482931842  MEMB      7               0.0000000000
       807         7  DOPC      O32            11.8823960300       -3.6323621143       12.3976434715  MEMB      7               0.0000000000
       808         7  DOPC      C32            11.7761444783       -1.2882527706       11.7510514498  MEMB      7               0.0000000000
       809         7  DOPC      H2X            10.9589805318       -0.6661399596       12.1747722853  MEMB      7               0.0000000000
       810         7  DOPC      H2Y            12.7196490406       -0.7071805900       11.6705807543  MEMB      7               0.0000000000
       811         7  DOPC      C23             7.7245653621       -3.2968522171       13.3131961881  MEMB      7               0.0000000000
       812         7  DOPC      H3R             8.7351950619       -3.4865733973       12.8925366228  MEMB      7               0.0000000000
       813         7  DOPC      H3S             7.4722870509       -2.2166796242       13.2507122811  MEMB      7               0.0000000000
       814         7  DOPC      C24             6.5426719117       -3.9237723135       12.5853602058  MEMB      7               0.0000000000
       815         7  DOPC      H4R             6.4822499625       -3.4081801682       11.6030996807  MEMB      7               0.0000000000
       816         7  DOPC      H4S             5.6057499521       -3.7427993205       13.1543478566  MEMB      7               0.0000000000
       817         7  DOPC      C25             6.7360950577       -5.4036859934       12.3066541321  MEMB      7               0.0000000000
       818         7  DOPC      H5R             5.7095214916       -5.8284998199       12.3077674431  MEMB      7               0.0000000000
       819         7  DOPC      H5S             7.3059380649       -5.8371325582       13.1561978534  MEMB      7               0.0000000000
       820         7  DOPC      C26             7.2867520071       -5.6238632816       10.9101415730  MEMB      7               0.0000000000
       821         7  DOPC      H6R             8.1088756486       -4.9446771190       10.5984689874  MEMB      7               0.0000000000
       822         7  DOPC      H6S             6.5578367375       -5.4871133351       10.0829154468  MEMB      7               0.0000000000
       823         7  DOPC      C27             8.0162453838       -6.9378333505       10.6637954087  MEMB      7               0.0000000000
       824         7  DOPC      H7R             7.4779644734       -7.7653635334       11.1734699715  MEMB      7               0.0000000000
       825         7  DOPC      H7S             9.0107059174       -6.8388374696       11.1491496233  MEMB      7               0.0000000000
       826         7  DOPC      C28             8.3923094641       -7.3059381239        9.1877610880  MEMB      7               0.0000000000
       827         7  DOPC      H8R             8.7919576954       -6.4850710819        8.5546888561  MEMB      7               0.0000000000
       828         7  DOPC      H8S             7.4714107724       -7.6598106463        8.6768392454  MEMB      7               0.0000000000
       829         7  DOPC      C29             9.4313255533       -8.4171924648        9.1443390551  MEMB      7               0.0000000000
       830         7  DOPC      H9R             8.9739344684       -9.4126342483        9.2437827657  MEMB      7               0.0000000000
       831         7  DOPC      C210           10.7908679716       -8.2690024002        8.9609622337  MEMB      7               0.0000000000
       832         7  DOPC      H10R           11.3541586631       -9.2115107326        8.8947712578  MEMB      7               0.0000000000
       833         7  DOPC      C211           11.5361244007       -6.9709624959        8.7977149189  MEMB      7               0.0000000000
       834         7  DOPC      H11R           12.5964804598       -7.0514986953        9.1193980933  MEMB      7               0.0000000000
       835         7  DOPC      H11S           11.1831388814       -6.1633813632        9.4741285060  MEMB      7               0.0000000000
       836         7  DOPC      C212           11.5488368665       -6.3893945327        7.3920208222  MEMB      7               0.0000000000
       837         7  DOPC      H12R           10.4660804796       -6.2018382277        7.2283677293  MEMB      7               0.0000000000
       838         7  DOPC      H12S           11.8967863380       -7.1085922056        6.6200065276  MEMB      7               0.0000000000
       839         7  DOPC      C213           12.2275117449       -5.0251029966        7.4998698511  MEMB      7               0.0000000000
       840         7  DOPC      H13R           13.3241353678       -5.1689606913        7.3947850887  MEMB      7               0.0000000000
       841         7  DOPC      H13S           12.0357220753       -4.5662326604        8.4933356642  MEMB      7               0.0000000000
       842         7  DOPC      C214           11.8565439773       -3.8686241684        6.5492076137  MEMB      7               0.0000000000
       843         7  DOPC      H14R           12.4001610761       -2.9546338048        6.8708024612  MEMB      7               0.0000000000
       844         7  DOPC      H14S           10.7860594042       -3.5893960730        6.6512640599  MEMB      7               0.0000000000
       845         7  DOPC      C215           12.2641063708       -4.0826576196        5.0980460609  MEMB      7               0.0000000000
       846         7  DOPC      H15R           11.5861646963       -4.8972270655        4.7645901056  MEMB      7               0.0000000000
       847         7  DOPC      H15S           13.2909631866       -4.5034011088        5.0445581818  MEMB      7               0.0000000000
       848         7  DOPC      C216           12.1284661003       -2.7978278001        4.1684224332  MEMB      7               0.0000000000
       849         7  DOPC      H16R           12.5388638459       -1.9938884254        4.8161701227  MEMB      7               0.0000000000
       850         7  DOPC      H16S           11.0848225633       -2.5975312346        3.8443696410  MEMB      7               0.0000000000
       851         7  DOPC      C217           13.1925151978       -2.7184908096        3.0659831325  MEMB      7               0.0000000000
       852         7  DOPC      H17R           14.1506746520       -3.2637936100        3.2034474199  MEMB      7               0.0000000000
       853         7  DOPC      H17S           13.4863013801       -1.6584350923        2.9101226644  MEMB      7               0.0000000000
       854         7  DOPC      C218           12.8071830525       -3.2395588010        1.6491420757  MEMB      7               0.0000000000
       855         7  DOPC      H18R           13.5367813133       -2.8695399337        0.8974150509  MEMB      7               0.0000000000
       856         7  DOPC      H18S           11.7623338288       -2.9187269040        1.4499486872  MEMB      7               0.0000000000
       857         7  DOPC      H18T           12.7503767758       -4.3486650529        1.6804036174  MEMB      7               0.0000000000
       858         7  DOPC      C33            11.1647668599       -1.7739895289       10.4140991382  MEMB      7               0.0000000000
       859         7  DOPC      H3X            11.7530147986       -2.5756396979        9.9184752702  MEMB      7               0.0000000000
       860         7  DOPC      H3Y            11.2586685414       -0.9392347258        9.6869895084  MEMB      7               0.0000000000
       861         7  DOPC      C34             9.7178792378       -2.2033055429       10.5026454513  MEMB      7               0.0000000000
       862         7  DOPC      H4X             9.2162544563       -1.3292302182       10.9702843357  MEMB      7               0.0000000000
       863         7  DOPC      H4Y             9.7058880623       -3.0647636856       11.2041203009  MEMB      7               0.0000000000
       864         7  DOPC      C35             8.9842837152       -2.5807563693        9.2157988061  MEMB      7               0.0000000000
       865         7  DOPC      H5X             8.1165430727       -3.1739388998        9.5756342391  MEMB      7               0.0000000000
       866         7  DOPC      H5Y             9.5825476833       -3.3045527329        8.6220646726  MEMB      7               0.0000000000
       867         7  DOPC      C36             8.5005143313       -1.4265893180        8.4384851640  MEMB      7               0.0000000000
       868         7  DOPC      H6X             7.7200573780       -0.8961223613        9.0248412478  MEMB      7               0.0000000000
       869         7  DOPC      H6Y             9.3733639120       -0.7739782653        8.2227224036  MEMB      7               0.0000000000
       870         7  DOPC      C37             7.8830549022       -1.9573443869        7.1286843940  MEMB      7               0.0000000000
       871         7  DOPC      H7X             7.9358324836       -1.0993510929        6.4248494474  MEMB      7               0.0000000000
       872         7  DOPC      H7Y             8.6161067055       -2.6932823443        6.7345376605  MEMB      7               0.0000000000
       873         7  DOPC      C38             6.4053609901       -2.4217125979        7.2750072955  MEMB      7               0.0000000000
       874         7  DOPC      H8X             5.8057590074       -1.5922443387        7.7071892702  MEMB      7               0.0000000000
       875         7  DOPC      H8Y             6.2902253700       -3.2910592359        7.9571368088  MEMB      7               0.0000000000
       876         7  DOPC      C39             5.8082986294       -2.7149736728        5.9107755478  MEMB      7               0.0000000000
       877         7  DOPC      H9X             5.6782780073       -1.8493640138        5.2445814732  MEMB      7               0.0000000000
       878         7  DOPC      C310            5.5738023177       -3.9012557817        5.2927138652  MEMB      7               0.0000000000
       879         7  DOPC      H10X            5.1738146550       -3.9993756199        4.2727221689  MEMB      7               0.0000000000
       880         7  DOPC      C311            5.9083833172       -5.2898293999        5.8945243592  MEMB      7               0.0000000000
       881         7  DOPC      H11X            4.9948901624       -5.8160392404        6.2451725810  MEMB      7               0.0000000000
       882         7  DOPC      H11Y            6.5485137070       -5.1546946076        6.7924628498  MEMB      7               0.0000000000
       883         7  DOPC      C312            6.6268211690       -6.2525905442        4.9629798817  MEMB      7               0.0000000000
       884         7  DOPC      H12X            7.3109192173       -5.6795591463        4.3011898578  MEMB      7               0.0000000000
       885         7  DOPC      H12Y            5.8908718278       -6.8200593803        4.3541459708  MEMB      7               0.0000000000
       886         7  DOPC      C313            7.4149304597       -7.3229054080        5.7007097116  MEMB      7               0.0000000000
       887         7  DOPC      H13X            8.1543885492       -6.6855321362        6.2310661572  MEMB      7               0.0000000000
       888         7  DOPC      H13Y            6.8827226296       -7.9937652475        6.4085399163  MEMB      7               0.0000000000
       889         7  DOPC      C314            8.2234978345       -8.1422428458        4.6941465510  MEMB      7               0.0000000000
       890         7  DOPC      H14X            8.4203048371       -9.1272489915        5.1688581970  MEMB      7               0.0000000000
       891         7  DOPC      H14Y            7.4622018551       -8.4679341570        3.9534205510  MEMB      7               0.0000000000
       892         7  DOPC      C315            9.4805209678       -7.4626029971        4.0681003492  MEMB      7               0.0000000000
       893         7  DOPC      H15X           10.1473087292       -7.1034893859        4.8809669538  MEMB      7               0.0000000000
       894         7  DOPC      H15Y            9.1918402523       -6.5856959321        3.4500243390  MEMB      7               0.0000000000
       895         7  DOPC      C316           10.2096505243       -8.3887848937        3.1150389546  MEMB      7               0.0000000000
       896         7  DOPC      H16X           10.8103792171       -7.5792575466        2.6480146207  MEMB      7               0.0000000000
       897         7  DOPC      H16Y           10.9150949182       -9.0323464429        3.6829275936  MEMB      7               0.0000000000
       898         7  DOPC      C317            9.3666068019       -9.1383884822        2.0263917441  MEMB      7               0.0000000000
       899         7  DOPC      H17X           10.0828318124       -9.5765221659        1.2988053138  MEMB      7               0.0000000000
       900         7  DOPC      H17Y            8.9104376671      -10.0398229653        2.4886097281  MEMB      7               0.0000000000
       901         7  DOPC      C318            8.3722241181       -8.4312281768        1.1157946404  MEMB      7               0.0000000000
       902         7  DOPC      H18X            7.9880541593       -9.1245088720        0.3372733464  MEMB      7               0.0000000000
       903         7  DOPC      H18Y            7.4990340687       -8.0546980068        1.6903255558  MEMB      7               0.0000000000
       904         7  DOPC      H18Z            8.8927655069       -7.5358729687        0.7136799522  MEMB      7               0.0000000000
       905         8  DOPC      N             -13.0987394802       -0.6242073776       21.0128655897  MEMB      8               0.0000000000
       906         8  DOPC      C12           -11.6948221744       -1.2733761107       20.8058773879  MEMB      8               0.0000000000
       907         8  DOPC      H12A          -11.7181163545       -2.3130265913       21.0973980814  MEMB      8               0.0000000000
       908         8  DOPC      H12B          -10.9411415909       -0.8402672820       21.4468003133  MEMB      8               0.0000000000
       909         8  DOPC      C13           -14.2374314138       -1.4357018986       20.4001762699  MEMB      8               0.0000000000
       910         8  DOPC      H13A          -15.1445411037       -0.9336831525       20.7027140585  MEMB      8               0.0000000000
       911         8  DOPC      H13B          -14.0514269103       -1.4969349329       19.3380779858  MEMB      8               0.0000000000
       912         8  DOPC      H13C          -14.0980644273       -2.4639647606       20.6995962439  MEMB      8               0.0000000000
       913         8  DOPC      C14           -12.9872052592        0.6928952696       20.3301028073  MEMB      8               0.0000000000
       914         8  DOPC      H14A          -12.1860422308        1.3118117722       20.7062415465  MEMB      8               0.0000000000
       915         8  DOPC      H14B          -12.8929366347        0.4679900095       19.2779949220  MEMB      8               0.0000000000
       916         8  DOPC      H14C          -13.9447934906        1.1695951911       20.4790387866  MEMB      8               0.0000000000
       917         8  DOPC      C15           -13.2989700095       -0.3935629643       22.5757533101  MEMB      8               0.0000000000
       918         8  DOPC      H15A          -14.2989129005       -0.0384325273       22.7767421215  MEMB      8               0.0000000000
       919         8  DOPC      H15B          -12.6112109842        0.3021420534       23.0333363747  MEMB      8               0.0000000000
       920         8  DOPC      H15C          -13.1112653981       -1.3354556797       23.0697219233  MEMB      8               0.0000000000
       921         8  DOPC      C11           -11.0393388980       -1.2384645228       19.4207758651  MEMB      8               0.0000000000
       922         8  DOPC      H11A          -10.8204201212       -0.1541430853       19.3176131142  MEMB      8               0.0000000000
       923         8  DOPC      H11B          -10.1637431594       -1.9008009267       19.5909628127  MEMB      8               0.0000000000
       924         8  DOPC      P             -11.6067698859       -1.4551091798       16.8729697219  MEMB      8               0.0000000000
       925         8  DOPC      O13           -10.2257146184       -1.8391828170       16.6341306409  MEMB      8               0.0000000000
       926         8  DOPC      O14           -11.8729792884       -0.1036836673       16.3989852694  MEMB      8               0.0000000000
       927         8  DOPC      O12           -11.9319332637       -1.6550578255       18.4191189168  MEMB      8               0.0000000000
       928         8  DOPC      O11           -12.6820756479       -2.4526234590       16.1292442255  MEMB      8               0.0000000000
       929         8  DOPC      C1            -13.8130458554       -2.9281290772       16.8328445780  MEMB      8               0.0000000000
       930         8  DOPC      HA            -14.0816281762       -2.2804418497       17.6946367372  MEMB      8               0.0000000000
       931         8  DOPC      HB            -13.6130072052       -3.9495928474       17.2213249610  MEMB      8               0.0000000000
       932         8  DOPC      C2            -15.1066873717       -2.9326506759       15.8760594975  MEMB      8               0.0000000000
       933         8  DOPC      HS            -15.8583635545       -3.4706401324       16.4923966888  MEMB      8               0.0000000000
       934         8  DOPC      O21           -14.7757327429       -3.5745278561       14.5839945294  MEMB      8               0.0000000000
       935         8  DOPC      C21           -14.8016137495       -4.9390674342       14.5641159503  MEMB      8               0.0000000000
       936         8  DOPC      O22           -15.1697824686       -5.6851828729       15.4178306978  MEMB      8               0.0000000000
       937         8  DOPC      C22           -14.3316011566       -5.3036297438       13.1345828656  MEMB      8               0.0000000000
       938         8  DOPC      H2R           -14.3408202500       -4.4853733842       12.3831224160  MEMB      8               0.0000000000
       939         8  DOPC      H2S           -14.9853070328       -6.1085957477       12.7358104149  MEMB      8               0.0000000000
       940         8  DOPC      C3            -15.6102631025       -1.5913858129       15.5985087644  MEMB      8               0.0000000000
       941         8  DOPC      HX            -15.8404519112       -1.0756864351       16.5552680520  MEMB      8               0.0000000000
       942         8  DOPC      HY            -16.5782648753       -1.6351975604       15.0550255714  MEMB      8               0.0000000000
       943         8  DOPC      O31           -14.6319770811       -0.7447944304       14.9113372323  MEMB      8               0.0000000000
       944         8  DOPC      C31           -14.6928716908       -0.6999224196       13.5962605974  MEMB      8               0.0000000000
       945         8  DOPC      O32           -15.6691573265       -1.0069129561       12.9337523554  MEMB      8               0.0000000000
       946         8  DOPC      C32           -13.3836892834       -0.1794703015       13.0104379972  MEMB      8               0.0000000000
       947         8  DOPC      H2X           -12.5843652636       -0.4056134125       13.7481784829  MEMB      8               0.0000000000
       948         8  DOPC      H2Y           -13.1838621655       -0.8058608872       12.1148792412  MEMB      8               0.0000000000
       949         8  DOPC      C23           -12.8927833992       -5.8617684054       13.3795983055  MEMB      8               0.0000000000
       950         8  DOPC      H3R           -12.6136624033       -6.4617676058       12.4871782729  MEMB      8               0.0000000000
       951         8  DOPC      H3S           -12.9807568605       -6.5433703762       14.2525247384  MEMB      8               0.0000000000
       952         8  DOPC      C24           -11.8614756106       -4.7139225918       13.6903230565  MEMB      8               0.0000000000
       953         8  DOPC      H4R           -10.8660443394       -5.2072954678       13.6949377200  MEMB      8               0.0000000000
       954         8  DOPC      H4S           -11.8161078197       -4.2598909682       14.7032980315  MEMB      8               0.0000000000
       955         8  DOPC      C25           -11.8789015151       -3.4781241538       12.7393287391  MEMB      8               0.0000000000
       956         8  DOPC      H5R           -12.7600876550       -2.8460222593       12.9807394620  MEMB      8               0.0000000000
       957         8  DOPC      H5S           -11.9513746075       -3.8375743019       11.6905843637  MEMB      8               0.0000000000
       958         8  DOPC      C26           -10.5711514956       -2.6086478544       12.8976986257  MEMB      8               0.0000000000
       959         8  DOPC      H6R            -9.7244180044       -3.2856734680       13.1405970263  MEMB      8               0.0000000000
       960         8  DOPC      H6S           -10.7202681568       -1.8478484853       13.6934809278  MEMB      8               0.0000000000
       961         8  DOPC      C27           -10.3512554585       -1.7826574960       11.6230926118  MEMB      8               0.0000000000
       962         8  DOPC      H7R            -9.8743366593       -0.8133024322       11.8823618923  MEMB      8               0.0000000000
       963         8  DOPC      H7S           -11.3654991603       -1.5138533810       11.2578873078  MEMB      8               0.0000000000
       964         8  DOPC      C28            -9.5936654430       -2.5933515655       10.6427366272  MEMB      8               0.0000000000
       965         8  DOPC      H8R           -10.1080132099       -3.4769892710       10.2080503592  MEMB      8               0.0000000000
       966         8  DOPC      H8S            -8.7486117231       -3.0768780109       11.1779071369  MEMB      8               0.0000000000
       967         8  DOPC      C29            -9.1627830036       -1.5521340908        9.5665674861  MEMB      8               0.0000000000
       968         8  DOPC      H9R            -8.4415095454       -0.8708236410       10.0415207486  MEMB      8               0.0000000000
       969         8  DOPC      C210           -9.5285594332       -1.4194999270        8.2968823194  MEMB      8               0.0000000000
       970         8  DOPC      H10R           -9.0406813623       -0.7235157748        7.5986122150  MEMB      8               0.0000000000
       971         8  DOPC      C211          -10.5029275064       -2.3384819838        7.6878057843  MEMB      8               0.0000000000
       972         8  DOPC      H11R          -11.4841283164       -2.1929000987        8.1881772696  MEMB      8               0.0000000000
       973         8  DOPC      H11S          -10.1650651226       -3.3903022805        7.8054642980  MEMB      8               0.0000000000
       974         8  DOPC      C212          -10.7433221641       -2.0856263757        6.1584232909  MEMB      8               0.0000000000
       975         8  DOPC      H12R           -9.8333492273       -2.1343008746        5.5228905410  MEMB      8               0.0000000000
       976         8  DOPC      H12S          -11.1356286732       -1.0517458525        6.0511495208  MEMB      8               0.0000000000
       977         8  DOPC      C213          -11.7128343679       -3.1330225239        5.7118212670  MEMB      8               0.0000000000
       978         8  DOPC      H13R          -12.6018840778       -3.0194480631        6.3683365544  MEMB      8               0.0000000000
       979         8  DOPC      H13S          -11.1788294611       -4.0899365336        5.8947844946  MEMB      8               0.0000000000
       980         8  DOPC      C214          -12.0354345396       -2.9468897641        4.2350912298  MEMB      8               0.0000000000
       981         8  DOPC      H14R          -11.1479510829       -2.8356220933        3.5760661517  MEMB      8               0.0000000000
       982         8  DOPC      H14S          -12.6300927136       -2.0207121816        4.0837707122  MEMB      8               0.0000000000
       983         8  DOPC      C215          -12.8681217860       -4.1395599078        3.6485904700  MEMB      8               0.0000000000
       984         8  DOPC      H15R          -13.7403945230       -4.3915085698        4.2888897424  MEMB      8               0.0000000000
       985         8  DOPC      H15S          -12.3333843670       -5.1126843516        3.6860888966  MEMB      8               0.0000000000
       986         8  DOPC      C216          -13.2510609533       -3.8922048449        2.1661955513  MEMB      8               0.0000000000
       987         8  DOPC      H16R          -13.6034239566       -2.8446018097        2.0535514914  MEMB      8               0.0000000000
       988         8  DOPC      H16S          -14.0461332536       -4.6062197469        1.8622822106  MEMB      8               0.0000000000
       989         8  DOPC      C217          -12.1582802546       -4.1545962013        1.1474196002  MEMB      8               0.0000000000
       990         8  DOPC      H17R          -11.9746632255       -5.2475209062        1.2256595414  MEMB      8               0.0000000000
       991         8  DOPC      H17S          -11.2907241173       -3.5202606751        1.4289986682  MEMB      8               0.0000000000
       992         8  DOPC      C218          -12.7167057649       -3.8206310134       -0.2538183986  MEMB      8               0.0000000000
       993         8  DOPC      H18R          -11.8649340297       -3.8636092299       -0.9658281282  MEMB      8               0.0000000000
       994         8  DOPC      H18S          -13.2622235605       -2.8583798832       -0.3577576364  MEMB      8               0.0000000000
       995         8  DOPC      H18T          -13.5231951619       -4.5164492316       -0.5696242057  MEMB      8               0.0000000000
       996         8  DOPC      C33           -13.4586148165        1.3353820137       12.5832477647  MEMB      8               0.0000000000
       997         8  DOPC      H3X           -12.4242526732        1.5821133329       12.2614721090  MEMB      8               0.0000000000
       998         8  DOPC      H3Y           -13.6801130632        2.0612007122       13.3946951755  MEMB      8               0.0000000000
       999         8  DOPC      C34           -14.4130642507        1.6584560866       11.4388978563  MEMB      8               0.0000000000
      1000         8  DOPC      H4X           -14.5782006648        2.7566152867       11.4720270423  MEMB      8               0.0000000000
      1001         8  DOPC      H4Y           -15.4488483477        1.2821119966       11.5797433037  MEMB      8               0.0000000000
      1002         8  DOPC      C35           -13.8082937255        1.3160607873       10.0531349721  MEMB      8               0.0000000000
      1003         8  DOPC      H5X           -13.2683822378        0.3453243854       10.0752142106  MEMB      8               0.0000000000
      1004         8  DOPC      H5Y           -13.0231368072        2.0857740269        9.8937898299  MEMB      8               0.0000000000
      1005         8  DOPC      C36           -14.7181437566        1.3120349664        8.8021581983  MEMB      8               0.0000000000
      1006         8  DOPC      H6X           -15.2690391839        2.2767969752        8.8104792960  MEMB      8               0.0000000000
      1007         8  DOPC      H6Y           -14.0526251423        1.1477516345        7.9278490128  MEMB      8               0.0000000000
      1008         8  DOPC      C37           -15.8105479333        0.2167059521        8.9003948653  MEMB      8               0.0000000000
      1009         8  DOPC      H7X           -16.4168220349        0.5389750830        9.7738331967  MEMB      8               0.0000000000
      1010         8  DOPC      H7Y           -16.5771477874        0.2928314397        8.0998634711  MEMB      8               0.0000000000
      1011         8  DOPC      C38           -15.2904607869       -1.2573716479        8.9745255389  MEMB      8               0.0000000000
      1012         8  DOPC      H8X           -14.5616422184       -1.3531767041        9.8075719160  MEMB      8               0.0000000000
      1013         8  DOPC      H8Y           -14.7408502109       -1.6274750924        8.0827451310  MEMB      8               0.0000000000
      1014         8  DOPC      C39           -16.4130450948       -2.1903941091        9.2737393831  MEMB      8               0.0000000000
      1015         8  DOPC      H9X           -16.8341231862       -2.2866584025       10.2853851488  MEMB      8               0.0000000000
      1016         8  DOPC      C310          -16.8751176886       -3.1709716245        8.4841704252  MEMB      8               0.0000000000
      1017         8  DOPC      H10X          -17.6878597295       -3.8020345484        8.8730274818  MEMB      8               0.0000000000
      1018         8  DOPC      C311          -16.4827440397       -3.6104637707        7.0550754534  MEMB      8               0.0000000000
      1019         8  DOPC      H11X          -16.5593849896       -4.7185558338        7.0791439417  MEMB      8               0.0000000000
      1020         8  DOPC      H11Y          -15.3926148332       -3.4585287869        6.9038957732  MEMB      8               0.0000000000
      1021         8  DOPC      C312          -17.2583159949       -3.0245201779        5.8327315496  MEMB      8               0.0000000000
      1022         8  DOPC      H12X          -17.2464109233       -1.9172632350        5.7423911880  MEMB      8               0.0000000000
      1023         8  DOPC      H12Y          -18.3224784080       -3.3272179044        5.9339911109  MEMB      8               0.0000000000
      1024         8  DOPC      C313          -16.8774364030       -3.5345089246        4.4849174006  MEMB      8               0.0000000000
      1025         8  DOPC      H13X          -15.8628756604       -3.1563239488        4.2359923219  MEMB      8               0.0000000000
      1026         8  DOPC      H13Y          -16.8121929719       -4.6434961533        4.4703626695  MEMB      8               0.0000000000
      1027         8  DOPC      C314          -17.9449812941       -3.1856709694        3.3951861529  MEMB      8               0.0000000000
      1028         8  DOPC      H14X          -17.9427211775       -3.9386358164        2.5782655589  MEMB      8               0.0000000000
      1029         8  DOPC      H14Y          -18.9174686666       -3.2547427150        3.9279324505  MEMB      8               0.0000000000
      1030         8  DOPC      C315          -17.5476096662       -1.8125066568        2.7571571648  MEMB      8               0.0000000000
      1031         8  DOPC      H15X          -16.4408198608       -1.7903516642        2.6631031725  MEMB      8               0.0000000000
      1032         8  DOPC      H15Y          -17.8361068994       -1.0614973657        3.5233652245  MEMB      8               0.0000000000
      1033         8  DOPC      C316          -18.3440185426       -1.5065924395        1.4906345883  MEMB      8               0.0000000000
      1034         8  DOPC      H16X          -18.0465692241       -2.2716512641        0.7419502843  MEMB      8               0.0000000000
      1035         8  DOPC      H16Y          -19.3645179616       -1.7641115532        1.8464239289  MEMB      8               0.0000000000
      1036         8  DOPC      C317          -18.1703174275       -0.1448979087        0.9543097032  MEMB      8               0.0000000000
      1037         8  DOPC      H17X          -18.6220687884        0.5748009424        1.6700440390  MEMB      8               0.0000000000
      1038         8  DOPC      H17Y          -17.0926911902        0.0845353670        0.8114710513  MEMB      8               0.0000000000
      1039         8  DOPC      C318          -19.0477012450        0.1686286116       -0.2871485482  MEMB      8               0.0000000000
      1040         8  DOPC      H18X          -18.6196433342       -0.3190794524       -1.1889404680  MEMB      8               0.0000000000
      1041         8  DOPC      H18Y          -20.1306690854       -0.0601462154       -0.1914206253  MEMB      8               0.0000000000
      1042         8  DOPC      H18Z          -18.9243840215        1.2455353169       -0.5308401241  MEMB      8               0.0000000000
      1043         9  DOPE      N              -2.1987059575       12.9275146786       17.3817259304  MEMB      9               0.0000000000
      1044         9  DOPE      HN1            -1.4632313222       12.7969713046       18.1053525149  MEMB      9               0.0000000000
      1045         9  DOPE      HN2            -2.2477293835       12.0760503472       16.7865746405  MEMB      9               0.0000000000
      1046         9  DOPE      HN3            -1.8788954734       13.7761524130       16.8726726155  MEMB      9               0.0000000000
      1047         9  DOPE      C12            -3.4623782945       13.0810873981       18.2459033946  MEMB      9               0.0000000000
      1048         9  DOPE      H12A           -4.2848448294       13.1266421164       17.5003870727  MEMB      9               0.0000000000
      1049         9  DOPE      H12B           -3.4161720079       14.0199301395       18.8381534999  MEMB      9               0.0000000000
      1050         9  DOPE      C11            -3.8532886758       11.8209898680       19.0802300329  MEMB      9               0.0000000000
      1051         9  DOPE      H11A           -3.1306910539       11.6546024297       19.9075684736  MEMB      9               0.0000000000
      1052         9  DOPE      H11B           -3.8972662755       10.9374552276       18.4081039211  MEMB      9               0.0000000000
      1053         9  DOPE      P              -6.3544853071       11.2414617352       19.5407109625  MEMB      9               0.0000000000
      1054         9  DOPE      O13            -7.3031741834       11.3004097642       20.6919111944  MEMB      9               0.0000000000
      1055         9  DOPE      O14            -5.9031857355        9.9739460766       19.0571316152  MEMB      9               0.0000000000
      1056         9  DOPE      O11            -6.9499109302       12.0205133196       18.2311204981  MEMB      9               0.0000000000
      1057         9  DOPE      O12            -5.0403721968       12.1183803560       19.7712663684  MEMB      9               0.0000000000
      1058         9  DOPE      C1             -7.9808803985       11.4897036986       17.4738778551  MEMB      9               0.0000000000
      1059         9  DOPE      HA             -8.5023986805       12.3848072208       17.0724689892  MEMB      9               0.0000000000
      1060         9  DOPE      HB             -8.7254932416       10.8851913701       18.0346250250  MEMB      9               0.0000000000
      1061         9  DOPE      C2             -7.3599420942       10.7162154755       16.2565908888  MEMB      9               0.0000000000
      1062         9  DOPE      HS             -6.8897291431        9.8472629073       16.7646677889  MEMB      9               0.0000000000
      1063         9  DOPE      O21            -6.3744569017       11.4361242677       15.5439950894  MEMB      9               0.0000000000
      1064         9  DOPE      C21            -5.4162958202       10.6785388514       15.0670093090  MEMB      9               0.0000000000
      1065         9  DOPE      O22            -5.3119852695        9.4697000109       15.2107114657  MEMB      9               0.0000000000
      1066         9  DOPE      C22            -4.6013434339       11.5793145769       14.0452522627  MEMB      9               0.0000000000
      1067         9  DOPE      H2R            -4.3466252420       12.5072352218       14.6005922257  MEMB      9               0.0000000000
      1068         9  DOPE      H2S            -5.2350417946       11.7608269410       13.1509363940  MEMB      9               0.0000000000
      1069         9  DOPE      C3             -8.3782962547       10.2396519751       15.2538325536  MEMB      9               0.0000000000
      1070         9  DOPE      HX             -9.1936505977        9.6563980756       15.7327198467  MEMB      9               0.0000000000
      1071         9  DOPE      HY             -7.9276521316        9.5919119674       14.4717371427  MEMB      9               0.0000000000
      1072         9  DOPE      O31            -9.1385094850       11.3672566284       14.7196582461  MEMB      9               0.0000000000
      1073         9  DOPE      C31            -9.0176902693       11.7065684810       13.4404989198  MEMB      9               0.0000000000
      1074         9  DOPE      O32            -8.4866677852       11.0693326132       12.6098404058  MEMB      9               0.0000000000
      1075         9  DOPE      C32            -9.4906836124       13.2038546182       13.1417554786  MEMB      9               0.0000000000
      1076         9  DOPE      H2X           -10.6004114997       13.1554804287       13.1637901540  MEMB      9               0.0000000000
      1077         9  DOPE      H2Y            -9.1655138978       13.8716851171       13.9679440696  MEMB      9               0.0000000000
      1078         9  DOPE      C23            -3.2950446181       10.8386177680       13.6546334594  MEMB      9               0.0000000000
      1079         9  DOPE      H3R            -2.9213680631       10.2121521400       14.4926234925  MEMB      9               0.0000000000
      1080         9  DOPE      H3S            -2.5549174894       11.6548016124       13.5118862332  MEMB      9               0.0000000000
      1081         9  DOPE      C24            -3.2485804277       10.1565036254       12.2659837823  MEMB      9               0.0000000000
      1082         9  DOPE      H4R            -4.2857411384        9.8013065579       12.0858337482  MEMB      9               0.0000000000
      1083         9  DOPE      H4S            -2.7398195140        9.1701983657       12.2141651375  MEMB      9               0.0000000000
      1084         9  DOPE      C25            -2.6739480008       11.0966229212       11.1498831992  MEMB      9               0.0000000000
      1085         9  DOPE      H5R            -1.5635788791       11.1295753779       11.1676280412  MEMB      9               0.0000000000
      1086         9  DOPE      H5S            -3.0816679611       12.1136749605       11.3334334508  MEMB      9               0.0000000000
      1087         9  DOPE      C26            -3.2328715063       10.5857915794        9.8067994717  MEMB      9               0.0000000000
      1088         9  DOPE      H6R            -3.2779330477        9.4783774138        9.8837698790  MEMB      9               0.0000000000
      1089         9  DOPE      H6S            -2.4998711279       10.9007501095        9.0336031541  MEMB      9               0.0000000000
      1090         9  DOPE      C27            -4.6942520420       11.1022087762        9.4411703265  MEMB      9               0.0000000000
      1091         9  DOPE      H7R            -4.6678399314       11.9591466001        8.7345720092  MEMB      9               0.0000000000
      1092         9  DOPE      H7S            -5.0452816402       11.4535814447       10.4349693174  MEMB      9               0.0000000000
      1093         9  DOPE      C28            -5.6822094704       10.0626540459        8.8728679402  MEMB      9               0.0000000000
      1094         9  DOPE      H8R            -5.5469682611        9.1288904370        9.4594824842  MEMB      9               0.0000000000
      1095         9  DOPE      H8S            -5.4314409015        9.8246181616        7.8170383450  MEMB      9               0.0000000000
      1096         9  DOPE      C29            -7.1741027159       10.3562618586        8.8939625710  MEMB      9               0.0000000000
      1097         9  DOPE      H9R            -7.8120932710        9.7242051897        9.5291569940  MEMB      9               0.0000000000
      1098         9  DOPE      C210           -7.7512623201       11.1586166670        8.0012122963  MEMB      9               0.0000000000
      1099         9  DOPE      H10R           -8.8491719095       11.2229455474        8.0225745557  MEMB      9               0.0000000000
      1100         9  DOPE      C211           -7.1728680724       11.9153267623        6.8911038493  MEMB      9               0.0000000000
      1101         9  DOPE      H11R           -6.3290022708       11.2781609246        6.5501768314  MEMB      9               0.0000000000
      1102         9  DOPE      H11S           -6.6484479230       12.8328394131        7.2338493980  MEMB      9               0.0000000000
      1103         9  DOPE      C212           -8.1429419827       12.2770596275        5.6910793321  MEMB      9               0.0000000000
      1104         9  DOPE      H12R           -7.6673759402       12.9249915396        4.9240445133  MEMB      9               0.0000000000
      1105         9  DOPE      H12S           -8.9281360202       12.9111242290        6.1555725402  MEMB      9               0.0000000000
      1106         9  DOPE      C213           -8.9212040696       11.1447039253        5.0276517130  MEMB      9               0.0000000000
      1107         9  DOPE      H13R           -9.7028742989       11.4341139214        4.2931089896  MEMB      9               0.0000000000
      1108         9  DOPE      H13S           -9.4691150567       10.6594865113        5.8635219120  MEMB      9               0.0000000000
      1109         9  DOPE      C214           -8.1317481155       10.1352380519        4.1950289450  MEMB      9               0.0000000000
      1110         9  DOPE      H14R           -7.3802054524        9.9390507426        4.9893938051  MEMB      9               0.0000000000
      1111         9  DOPE      H14S           -7.6120353714       10.6431584010        3.3546504496  MEMB      9               0.0000000000
      1112         9  DOPE      C215           -8.9809783769        8.9019340884        3.7041265339  MEMB      9               0.0000000000
      1113         9  DOPE      H15R           -9.6940565774        9.0733144704        2.8695792727  MEMB      9               0.0000000000
      1114         9  DOPE      H15S           -9.6649108634        8.6044938795        4.5275862508  MEMB      9               0.0000000000
      1115         9  DOPE      C216           -8.0812665368        7.6621546679        3.2670674258  MEMB      9               0.0000000000
      1116         9  DOPE      H16R           -7.5264257686        7.3282504846        4.1698303456  MEMB      9               0.0000000000
      1117         9  DOPE      H16S           -7.4679220200        7.9325498025        2.3810565886  MEMB      9               0.0000000000
      1118         9  DOPE      C217           -8.9261499298        6.4288282334        2.7962677997  MEMB      9               0.0000000000
      1119         9  DOPE      H17R           -9.4011433419        5.8961935978        3.6477381659  MEMB      9               0.0000000000
      1120         9  DOPE      H17S           -8.2027623060        5.7219754695        2.3364939303  MEMB      9               0.0000000000
      1121         9  DOPE      C218          -10.1338010833        6.6372578907        1.8373989707  MEMB      9               0.0000000000
      1122         9  DOPE      H18R           -9.8138688375        7.4012073603        1.0968955462  MEMB      9               0.0000000000
      1123         9  DOPE      H18S          -11.0609467947        6.9370776490        2.3710925326  MEMB      9               0.0000000000
      1124         9  DOPE      H18T          -10.2516550536        5.6635536314        1.3155436083  MEMB      9               0.0000000000
      1125         9  DOPE      C33            -9.0284809981       13.6146043507       11.7722854411  MEMB      9               0.0000000000
      1126         9  DOPE      H3X            -9.4657068301       14.5996514235       11.5024031033  MEMB      9               0.0000000000
      1127         9  DOPE      H3Y            -9.2365577790       12.8992943349       10.9480543027  MEMB      9               0.0000000000
      1128         9  DOPE      C34            -7.4794478325       13.8060071027       11.7767138897  MEMB      9               0.0000000000
      1129         9  DOPE      H4X            -7.3245044994       14.6456262306       12.4875960327  MEMB      9               0.0000000000
      1130         9  DOPE      H4Y            -6.8558105633       12.9927392456       12.2056581711  MEMB      9               0.0000000000
      1131         9  DOPE      C35            -7.0617799395       14.2897174333       10.3409555207  MEMB      9               0.0000000000
      1132         9  DOPE      H5X            -7.8479889748       14.9986817096       10.0039594453  MEMB      9               0.0000000000
      1133         9  DOPE      H5Y            -7.2373443423       13.5045248443        9.5748144818  MEMB      9               0.0000000000
      1134         9  DOPE      C36            -5.6058142635       14.8828310439       10.4296962842  MEMB      9               0.0000000000
      1135         9  DOPE      H6X            -5.0265171923       14.0438962879       10.8711989940  MEMB      9               0.0000000000
      1136         9  DOPE      H6Y            -5.6228611825       15.7051843028       11.1765335258  MEMB      9               0.0000000000
      1137         9  DOPE      C37            -5.0346640261       15.3926803123        9.1218126433  MEMB      9               0.0000000000
      1138         9  DOPE      H7X            -5.0865310433       14.6278981118        8.3176125822  MEMB      9               0.0000000000
      1139         9  DOPE      H7Y            -5.6630669136       16.2900896910        8.9371868789  MEMB      9               0.0000000000
      1140         9  DOPE      C38            -3.5469387889       15.8862218728        9.3170252282  MEMB      9               0.0000000000
      1141         9  DOPE      H8X            -3.4409345118       16.4600623833       10.2624310711  MEMB      9               0.0000000000
      1142         9  DOPE      H8Y            -3.2284108993       16.6149473204        8.5412542682  MEMB      9               0.0000000000
      1143         9  DOPE      C39            -2.6868625230       14.6540581515        9.1497626462  MEMB      9               0.0000000000
      1144         9  DOPE      H9X            -2.3556650747       14.3801307884       10.1623206239  MEMB      9               0.0000000000
      1145         9  DOPE      C310           -2.2290523254       13.9487811797        8.0648069546  MEMB      9               0.0000000000
      1146         9  DOPE      H10X           -1.6113844361       13.0575134680        8.2495446093  MEMB      9               0.0000000000
      1147         9  DOPE      C311           -2.5920930997       14.2986702716        6.6229899517  MEMB      9               0.0000000000
      1148         9  DOPE      H11X           -3.3521413783       15.0977786578        6.4885524896  MEMB      9               0.0000000000
      1149         9  DOPE      H11Y           -1.6567666473       14.5963049803        6.1025097802  MEMB      9               0.0000000000
      1150         9  DOPE      C312           -3.1775401937       13.0847981022        5.8781780362  MEMB      9               0.0000000000
      1151         9  DOPE      H12X           -3.1515111873       13.3221986709        4.7931513199  MEMB      9               0.0000000000
      1152         9  DOPE      H12Y           -4.1985619419       12.9809306638        6.3036744500  MEMB      9               0.0000000000
      1153         9  DOPE      C313           -2.4137635217       11.7498620850        5.8682231315  MEMB      9               0.0000000000
      1154         9  DOPE      H13X           -1.6971153820       11.8124198681        5.0215687391  MEMB      9               0.0000000000
      1155         9  DOPE      H13Y           -1.6712025587       11.5938551248        6.6797558820  MEMB      9               0.0000000000
      1156         9  DOPE      C314           -3.2933778006       10.4579179468        5.6635519589  MEMB      9               0.0000000000
      1157         9  DOPE      H14X           -3.8483931437       10.3739781983        6.6223185942  MEMB      9               0.0000000000
      1158         9  DOPE      H14Y           -2.7237438706        9.5042988932        5.6847404252  MEMB      9               0.0000000000
      1159         9  DOPE      C315           -4.3702772696       10.3490560646        4.5842780797  MEMB      9               0.0000000000
      1160         9  DOPE      H15X           -5.0115640948       11.2513336770        4.4895824766  MEMB      9               0.0000000000
      1161         9  DOPE      H15Y           -5.0886774218        9.6490013110        5.0619234837  MEMB      9               0.0000000000
      1162         9  DOPE      C316           -3.8836698513        9.7547738292        3.2195501873  MEMB      9               0.0000000000
      1163         9  DOPE      H16X           -4.6631766313        9.5345915794        2.4591491612  MEMB      9               0.0000000000
      1164         9  DOPE      H16Y           -3.4709433730        8.7436716480        3.4236345101  MEMB      9               0.0000000000
      1165         9  DOPE      C317           -2.8582038675       10.6828308021        2.5769202144  MEMB      9               0.0000000000
      1166         9  DOPE      H17X           -3.2382609298       11.7016863563        2.3492997841  MEMB      9               0.0000000000
      1167         9  DOPE      H17Y           -1.9870797749       10.8415166785        3.2479515390  MEMB      9               0.0000000000
      1168         9  DOPE      C318           -2.4222923718       10.1025428971        1.2170464951  MEMB      9               0.0000000000
      1169         9  DOPE      H18X           -1.8972937620        9.1593318019        1.4798191405  MEMB      9               0.0000000000
      1170         9  DOPE      H18Y           -3.2078429991        9.7601226667        0.5099533523  MEMB      9               0.0000000000
      1171         9  DOPE      H18Z           -1.6979540304       10.7445099552        0.6715800507  MEMB      9               0.0000000000
      1172        10  CHL1      C3            -11.9661773874        7.8039715631       17.3575000000  MEMB      10              0.0000000000
      1173        10  CHL1      H3            -11.7419533230        8.8728375394       17.5613700000  MEMB      10              0.0000000000
      1174        10  CHL1      O3            -11.9504042126        7.1837428369       18.6425000000  MEMB      10              0.0000000000
      1175        10  CHL1      H3'           -12.6164106019        7.6648723997       19.1390300000  MEMB      10              0.0000000000
      1176        10  CHL1      C4            -13.3539601758        7.5830705130       16.6794800000  MEMB      10              0.0000000000
      1177        10  CHL1      H4A           -13.4820612457        6.4796815191       16.6585600000  MEMB      10              0.0000000000
      1178        10  CHL1      H4B           -14.0927487615        8.0464316099       17.3678100000  MEMB      10              0.0000000000
      1179        10  CHL1      C5            -13.4262217845        8.0464704504       15.2106800000  MEMB      10              0.0000000000
      1180        10  CHL1      C6            -14.3081465425        8.8929671664       14.7678400000  MEMB      10              0.0000000000
      1181        10  CHL1      H6            -15.0607812856        9.2735907070       15.4740000000  MEMB      10              0.0000000000
      1182        10  CHL1      C7            -14.4379225634        9.2933207518       13.3188100000  MEMB      10              0.0000000000
      1183        10  CHL1      H7A           -15.4866120397        9.3677765640       12.9595900000  MEMB      10              0.0000000000
      1184        10  CHL1      H7B           -13.9062574607       10.2285658599       13.0413900000  MEMB      10              0.0000000000
      1185        10  CHL1      C8            -13.8393003968        8.0836265899       12.3983400000  MEMB      10              0.0000000000
      1186        10  CHL1      H8            -14.3894551657        7.1410650042       12.6062300000  MEMB      10              0.0000000000
      1187        10  CHL1      C14           -13.8651344101        8.3554775559       10.9510900000  MEMB      10              0.0000000000
      1188        10  CHL1      H14           -13.3877847442        9.3492292057       10.8135100000  MEMB      10              0.0000000000
      1189        10  CHL1      C15           -15.2836300417        8.7250443785       10.3220800000  MEMB      10              0.0000000000
      1190        10  CHL1      H15A          -15.9866421301        7.9123475687       10.6042500000  MEMB      10              0.0000000000
      1191        10  CHL1      H15B          -15.5872102849        9.7045577221       10.7495000000  MEMB      10              0.0000000000
      1192        10  CHL1      C16           -14.9737514687        8.7270651621        8.7927400000  MEMB      10              0.0000000000
      1193        10  CHL1      H16A          -15.7212216580        8.0408775428        8.3402500000  MEMB      10              0.0000000000
      1194        10  CHL1      H16B          -15.0131513008        9.7415497991        8.3415200000  MEMB      10              0.0000000000
      1195        10  CHL1      C17           -13.5050883980        8.1906093961        8.5999400000  MEMB      10              0.0000000000
      1196        10  CHL1      H17           -12.8071570924        9.0532880691        8.6547300000  MEMB      10              0.0000000000
      1197        10  CHL1      C13           -13.1096834572        7.4962853780        9.9308900000  MEMB      10              0.0000000000
      1198        10  CHL1      C18           -13.6193569035        6.0702431925       10.0033500000  MEMB      10              0.0000000000
      1199        10  CHL1      H18A          -13.5022128433        5.5009185061       10.9501700000  MEMB      10              0.0000000000
      1200        10  CHL1      H18B          -14.6939038408        6.0873051870        9.7216100000  MEMB      10              0.0000000000
      1201        10  CHL1      H18C          -13.0772650191        5.5656800217        9.1751800000  MEMB      10              0.0000000000
      1202        10  CHL1      C12           -11.5978378406        7.5906214821       10.4448700000  MEMB      10              0.0000000000
      1203        10  CHL1      H12A          -10.9739277862        6.9322889805        9.8032700000  MEMB      10              0.0000000000
      1204        10  CHL1      H12B          -11.3353641723        8.6259049034       10.1389100000  MEMB      10              0.0000000000
      1205        10  CHL1      C11           -11.4795561494        7.1337375953       11.9432300000  MEMB      10              0.0000000000
      1206        10  CHL1      H11A          -11.7325860093        6.0522254439       11.9181900000  MEMB      10              0.0000000000
      1207        10  CHL1      H11B          -10.3995048252        7.2362207400       12.1826000000  MEMB      10              0.0000000000
      1208        10  CHL1      C9            -12.3822827956        7.9834709058       12.9100000000  MEMB      10              0.0000000000
      1209        10  CHL1      H9            -11.9687528564        9.0081066450       13.0258900000  MEMB      10              0.0000000000
      1210        10  CHL1      C10           -12.3511657486        7.4434469805       14.3562300000  MEMB      10              0.0000000000
      1211        10  CHL1      C19           -12.4926240736        5.8731176180       14.2320800000  MEMB      10              0.0000000000
      1212        10  CHL1      H19A          -11.5256226000        5.4730089916       13.8590600000  MEMB      10              0.0000000000
      1213        10  CHL1      H19B          -12.5526132648        5.4747631272       15.2674700000  MEMB      10              0.0000000000
      1214        10  CHL1      H19C          -13.3594171897        5.5956955113       13.5948700000  MEMB      10              0.0000000000
      1215        10  CHL1      C1            -11.0276378217        7.7253567387       15.0798500000  MEMB      10              0.0000000000
      1216        10  CHL1      H1A           -10.1888648723        7.1990421771       14.5761000000  MEMB      10              0.0000000000
      1217        10  CHL1      H1B           -10.7809672412        8.8084345417       15.0596400000  MEMB      10              0.0000000000
      1218        10  CHL1      C2            -10.9355051576        7.2144304502       16.5301000000  MEMB      10              0.0000000000
      1219        10  CHL1      H2A            -9.9718114176        7.5568385022       16.9641200000  MEMB      10              0.0000000000
      1220        10  CHL1      H2B           -10.8580220872        6.1065218042       16.5010900000  MEMB      10              0.0000000000
      1221        10  CHL1      C20           -13.3547889396        7.3980556300        7.2546600000  MEMB      10              0.0000000000
      1222        10  CHL1      H20           -13.9592149239        6.4731981591        7.3714200000  MEMB      10              0.0000000000
      1223        10  CHL1      C21           -11.9018719785        6.9916789912        6.9931400000  MEMB      10              0.0000000000
      1224        10  CHL1      H21A          -11.5051521276        6.2987316399        7.7656500000  MEMB      10              0.0000000000
      1225        10  CHL1      H21B          -11.2883506409        7.9176109621        7.0166000000  MEMB      10              0.0000000000
      1226        10  CHL1      H21C          -11.8138059512        6.4173955147        6.0461600000  MEMB      10              0.0000000000
      1227        10  CHL1      C22           -13.9922975390        8.1175268637        6.0321500000  MEMB      10              0.0000000000
      1228        10  CHL1      H22A          -15.0545401801        8.4231830570        6.1441100000  MEMB      10              0.0000000000
      1229        10  CHL1      H22B          -13.4516083920        9.0707698585        5.8496600000  MEMB      10              0.0000000000
      1230        10  CHL1      C23           -13.9345016748        7.1894176452        4.8027600000  MEMB      10              0.0000000000
      1231        10  CHL1      H23A          -12.9331123435        6.9469960183        4.3871100000  MEMB      10              0.0000000000
      1232        10  CHL1      H23B          -14.3940351277        6.2017008486        5.0208300000  MEMB      10              0.0000000000
      1233        10  CHL1      C24           -14.7776050295        7.8248703743        3.6824600000  MEMB      10              0.0000000000
      1234        10  CHL1      H24A          -15.8046762919        7.6890482140        4.0837100000  MEMB      10              0.0000000000
      1235        10  CHL1      H24B          -14.4872210650        8.8945936252        3.6069700000  MEMB      10              0.0000000000
      1236        10  CHL1      C25           -14.7954465893        7.0684531782        2.2940000000  MEMB      10              0.0000000000
      1237        10  CHL1      H25           -13.7393077434        6.8199831833        2.0549400000  MEMB      10              0.0000000000
      1238        10  CHL1      C26           -15.4489851201        5.6613293300        2.3207100000  MEMB      10              0.0000000000
      1239        10  CHL1      H26A          -15.3507679120        5.1166963178        1.3573600000  MEMB      10              0.0000000000
      1240        10  CHL1      H26B          -14.9376949309        5.0171398252        3.0676500000  MEMB      10              0.0000000000
      1241        10  CHL1      H26C          -16.5198779968        5.7482819022        2.6034200000  MEMB      10              0.0000000000
      1242        10  CHL1      C27           -15.4047833903        7.8520799633        1.1316800000  MEMB      10              0.0000000000
      1243        10  CHL1      H27A          -14.9407194342        7.5626441599        0.1646200000  MEMB      10              0.0000000000
      1244        10  CHL1      H27B          -16.5079964812        7.7210019840        1.1233500000  MEMB      10              0.0000000000
      1245        10  CHL1      H27C          -15.2125721524        8.9368435319        1.2753900000  MEMB      10              0.0000000000
      1246        11  23SM      N               8.9590355264       11.2702144485       27.8818806130  MEMB      11              0.0000000000
      1247        11  23SM      C15             8.1912574096       10.3441699402       27.0623910723  MEMB      11              0.0000000000
      1248        11  23SM      H15A            7.9333464411        9.5161857224       27.7060712491  MEMB      11              0.0000000000
      1249        11  23SM      H15B            8.7687322804       10.0066853593       26.2144365125  MEMB      11              0.0000000000
      1250        11  23SM      H15C            7.2895806865       10.8810521635       26.8071725309  MEMB      11              0.0000000000
      1251        11  23SM      C14             8.1855551710       11.6378595639       29.1256639533  MEMB      11              0.0000000000
      1252        11  23SM      H14A            7.8284433690       10.6974068484       29.5186270028  MEMB      11              0.0000000000
      1253        11  23SM      H14B            7.3024560620       12.1433674485       28.7637281895  MEMB      11              0.0000000000
      1254        11  23SM      H14C            8.8515913440       12.2285583207       29.7371138297  MEMB      11              0.0000000000
      1255        11  23SM      C13            10.2399681558       10.6310608141       28.4202622807  MEMB      11              0.0000000000
      1256        11  23SM      H13A            9.8341448459        9.8242936992       29.0125747405  MEMB      11              0.0000000000
      1257        11  23SM      H13B           10.8847261280       11.3132811588       28.9543620185  MEMB      11              0.0000000000
      1258        11  23SM      H13C           10.8567510626       10.1872880077       27.6527699096  MEMB      11              0.0000000000
      1259        11  23SM      C12             9.3513448600       12.5373402979       27.2304672657  MEMB      11              0.0000000000
      1260        11  23SM      H12A           10.0326966266       13.0632248539       27.8828513918  MEMB      11              0.0000000000
      1261        11  23SM      H12B            8.3959219198       13.0368695397       27.1669252120  MEMB      11              0.0000000000
      1262        11  23SM      C11            10.0190515329       12.3194784739       25.8478306947  MEMB      11              0.0000000000
      1263        11  23SM      H11A           10.9897717061       11.7791575944       25.8565797960  MEMB      11              0.0000000000
      1264        11  23SM      H11B           10.3977679856       13.3205927118       25.5500639751  MEMB      11              0.0000000000
      1265        11  23SM      P               8.1571031054       12.6888239242       24.1299504551  MEMB      11              0.0000000000
      1266        11  23SM      O13             6.8763909248       12.7240151655       24.7972816668  MEMB      11              0.0000000000
      1267        11  23SM      O14             8.8810111844       13.9842113055       23.8837332014  MEMB      11              0.0000000000
      1268        11  23SM      O11             8.0204656266       11.8350690257       22.7714939964  MEMB      11              0.0000000000
      1269        11  23SM      O12             9.1877133813       11.7152426405       24.8490448009  MEMB      11              0.0000000000
      1270        11  23SM      C1S             8.7482630977       12.0474312648       21.5700669155  MEMB      11              0.0000000000
      1271        11  23SM      H1S             9.6507916044       11.3995555610       21.5655528694  MEMB      11              0.0000000000
      1272        11  23SM      H1T             9.0781745043       13.0940958443       21.3969405214  MEMB      11              0.0000000000
      1273        11  23SM      NF              8.8360294106       11.8179048150       19.1922093202  MEMB      11              0.0000000000
      1274        11  23SM      HNF             8.6104801444       12.6568943915       18.7030947271  MEMB      11              0.0000000000
      1275        11  23SM      C2S             7.9767380570       11.7094948381       20.2919199977  MEMB      11              0.0000000000
      1276        11  23SM      H2S             7.6379920505       10.6516065674       20.3130065257  MEMB      11              0.0000000000
      1277        11  23SM      C3S             6.8136483683       12.6517692028       20.1241020200  MEMB      11              0.0000000000
      1278        11  23SM      H3S             7.1020269832       13.7216132556       20.2052964688  MEMB      11              0.0000000000
      1279        11  23SM      O3              5.8073113497       12.5249497388       21.1283473223  MEMB      11              0.0000000000
      1280        11  23SM      HO3             5.9292579425       11.7181956405       21.6341900219  MEMB      11              0.0000000000
      1281        11  23SM      C4S             6.1144046826       12.4499740170       18.8209883010  MEMB      11              0.0000000000
      1282        11  23SM      H4S             5.8149912183       11.4364634875       18.5157869206  MEMB      11              0.0000000000
      1283        11  23SM      C5S             5.9582752750       13.4209249637       17.8808146521  MEMB      11              0.0000000000
      1284        11  23SM      H5S             6.3121974596       14.4423084382       18.0845665146  MEMB      11              0.0000000000
      1285        11  23SM      C6S             5.3499849905       13.2424345623       16.5508170534  MEMB      11              0.0000000000
      1286        11  23SM      H6S             4.6424591835       14.0481728076       16.2601036366  MEMB      11              0.0000000000
      1287        11  23SM      H6T             4.8361152165       12.2594787570       16.4871260541  MEMB      11              0.0000000000
      1288        11  23SM      C7S             6.3383838551       13.1177352884       15.3847300978  MEMB      11              0.0000000000
      1289        11  23SM      H7S             6.9058397014       12.1665411437       15.4715887335  MEMB      11              0.0000000000
      1290        11  23SM      H7T             7.0434977427       13.9761611485       15.3692225139  MEMB      11              0.0000000000
      1291        11  23SM      C8S             5.5516560315       13.1381226204       13.9880318570  MEMB      11              0.0000000000
      1292        11  23SM      H8S             4.9948892275       14.0992667424       13.9649274348  MEMB      11              0.0000000000
      1293        11  23SM      H8T             4.6906869118       12.4398865897       14.0623267651  MEMB      11              0.0000000000
      1294        11  23SM      C9S             6.4709189425       12.8892470706       12.8003593319  MEMB      11              0.0000000000
      1295        11  23SM      H9S             7.1435587117       12.0564824242       13.0976476728  MEMB      11              0.0000000000
      1296        11  23SM      H9T             7.1012300103       13.7975413460       12.6906763136  MEMB      11              0.0000000000
      1297        11  23SM      C10S            5.7219342391       12.6365282551       11.4758030601  MEMB      11              0.0000000000
      1298        11  23SM      H10S            4.9259679878       13.3911848422       11.2990212384  MEMB      11              0.0000000000
      1299        11  23SM      H10T            5.2898419312       11.6211158787       11.6044686751  MEMB      11              0.0000000000
      1300        11  23SM      C11S            6.6961589222       12.6178553137       10.3116878544  MEMB      11              0.0000000000
      1301        11  23SM      H11S            7.5046228972       11.9061461146       10.5840428692  MEMB      11              0.0000000000
      1302        11  23SM      H11T            7.2636363595       13.5729652378       10.3042419662  MEMB      11              0.0000000000
      1303        11  23SM      C12S            6.0861586803       12.3598074220        8.9561633089  MEMB      11              0.0000000000
      1304        11  23SM      H12S            5.3298024243       13.1660089107        8.8453229403  MEMB      11              0.0000000000
      1305        11  23SM      H12T            5.4690280553       11.4359831466        8.9517187638  MEMB      11              0.0000000000
      1306        11  23SM      C13S            7.0544073658       12.3627237667        7.7841579619  MEMB      11              0.0000000000
      1307        11  23SM      H13S            7.9876385339       11.8816477820        8.1474295448  MEMB      11              0.0000000000
      1308        11  23SM      H13T            7.3216862252       13.4042719983        7.5047652348  MEMB      11              0.0000000000
      1309        11  23SM      C14S            6.5186772862       11.5732002467        6.5735004253  MEMB      11              0.0000000000
      1310        11  23SM      H14S            5.6097915686       12.0658393435        6.1666159249  MEMB      11              0.0000000000
      1311        11  23SM      H14T            6.3221999519       10.4912884511        6.7321970279  MEMB      11              0.0000000000
      1312        11  23SM      C15S            7.5266712839       11.6963823624        5.4402063951  MEMB      11              0.0000000000
      1313        11  23SM      H15S            8.5691535680       11.5807763856        5.8065205123  MEMB      11              0.0000000000
      1314        11  23SM      H15T            7.5122591493       12.7798461830        5.1948098533  MEMB      11              0.0000000000
      1315        11  23SM      C16S            7.3860871552       10.7901911411        4.2357350260  MEMB      11              0.0000000000
      1316        11  23SM      H16S            7.5199253386        9.7295870917        4.5382702940  MEMB      11              0.0000000000
      1317        11  23SM      H16T            8.2498021063       11.0451099575        3.5850928277  MEMB      11              0.0000000000
      1318        11  23SM      C17S            6.0728440846       10.9121649124        3.4328377588  MEMB      11              0.0000000000
      1319        11  23SM      H17S            5.8539962402       11.9985574065        3.3542380249  MEMB      11              0.0000000000
      1320        11  23SM      H17T            5.3447220247       10.2911179738        3.9971608187  MEMB      11              0.0000000000
      1321        11  23SM      C18S            6.2733002056       10.3127841570        2.0167988883  MEMB      11              0.0000000000
      1322        11  23SM      H18S            7.2096218762       10.5850436221        1.4843556285  MEMB      11              0.0000000000
      1323        11  23SM      H18T            5.4349624264       10.4627670483        1.3033451624  MEMB      11              0.0000000000
      1324        11  23SM      H18U            6.2582695497        9.2068325750        2.1215184103  MEMB      11              0.0000000000
      1325        11  23SM      C1F             9.9335057317       11.0758923252       18.9111656688  MEMB      11              0.0000000000
      1326        11  23SM      OF             10.0924296301        9.9536983429       19.3621160204  MEMB      11              0.0000000000
      1327        11  23SM      C2F            11.0017735938       11.6068305997       18.0101915143  MEMB      11              0.0000000000
      1328        11  23SM      H2F            11.1978457707       10.8962900681       17.1789219089  MEMB      11              0.0000000000
      1329        11  23SM      H2G            11.9527905767       11.7953730019       18.5527219636  MEMB      11              0.0000000000
      1330        11  23SM      C3F            10.6111875056       12.9296097780       17.2732375613  MEMB      11              0.0000000000
      1331        11  23SM      H3F            10.7600581340       13.7162336507       18.0435503475  MEMB      11              0.0000000000
      1332        11  23SM      H3G             9.5456173371       12.8424239009       16.9711118825  MEMB      11              0.0000000000
      1333        11  23SM      C4F            11.4340725272       13.2824326897       16.0842647314  MEMB      11              0.0000000000
      1334        11  23SM      H4F            11.0594949123       12.6900385278       15.2222430674  MEMB      11              0.0000000000
      1335        11  23SM      H4G            12.4700374881       12.9162128502       16.2485225051  MEMB      11              0.0000000000
      1336        11  23SM      C5F            11.2136962392       14.8388373616       15.9125246277  MEMB      11              0.0000000000
      1337        11  23SM      H5F            11.7805269228       15.3115441164       16.7429295669  MEMB      11              0.0000000000
      1338        11  23SM      H5G            10.1157490451       14.9979740100       15.9717563492  MEMB      11              0.0000000000
      1339        11  23SM      C6F            11.6059390875       15.3168720312       14.4883905472  MEMB      11              0.0000000000
      1340        11  23SM      H6F            12.5586585215       14.8429928609       14.1688828578  MEMB      11              0.0000000000
      1341        11  23SM      H6G            11.7734524101       16.4148201271       14.5161573535  MEMB      11              0.0000000000
      1342        11  23SM      C7F            10.4565668102       14.9810313687       13.4988271974  MEMB      11              0.0000000000
      1343        11  23SM      H7F             9.4607170096       15.3840102256       13.7820443488  MEMB      11              0.0000000000
      1344        11  23SM      H7G            10.2952096414       13.8818304298       13.5053269626  MEMB      11              0.0000000000
      1345        11  23SM      C8F            10.7634987588       15.4041239039       12.0957901434  MEMB      11              0.0000000000
      1346        11  23SM      H8F            11.4224167900       14.6370420871       11.6356445705  MEMB      11              0.0000000000
      1347        11  23SM      H8G            11.4256904417       16.2945152385       12.0407792746  MEMB      11              0.0000000000
      1348        11  23SM      C9F             9.4874284230       15.8103356698       11.3001162549  MEMB      11              0.0000000000
      1349        11  23SM      H9F             8.8678862485       16.6560951909       11.6677835252  MEMB      11              0.0000000000
      1350        11  23SM      H9G             8.7573079161       14.9773048509       11.3855838194  MEMB      11              0.0000000000
      1351        11  23SM      C10F            9.7499658671       15.9557911709        9.7613146248  MEMB      11              0.0000000000
      1352        11  23SM      H10F            9.7403594069       14.9194799605        9.3609550511  MEMB      11              0.0000000000
      1353        11  23SM      H10G           10.8075459682       16.2620125244        9.6127416841  MEMB      11              0.0000000000
      1354        11  23SM      C11F            8.7218649023       16.7388614621        8.9742734951  MEMB      11              0.0000000000
      1355        11  23SM      H11F            8.6087824300       17.8327684065        9.1320746011  MEMB      11              0.0000000000
      1356        11  23SM      H11G            7.7117865815       16.2990198992        9.1178078705  MEMB      11              0.0000000000
      1357        11  23SM      C12F            8.9358985059       16.7211194750        7.4445873734  MEMB      11              0.0000000000
      1358        11  23SM      H12F            8.9836653293       15.7084508951        6.9901192199  MEMB      11              0.0000000000
      1359        11  23SM      H12G            9.9407267735       17.1286914232        7.2026651742  MEMB      11              0.0000000000
      1360        11  23SM      C13F            7.9423211942       17.6899254868        6.7184391914  MEMB      11              0.0000000000
      1361        11  23SM      H13F            8.0540735367       18.6550060083        7.2573754768  MEMB      11              0.0000000000
      1362        11  23SM      H13G            6.9153938970       17.2724337462        6.7922092187  MEMB      11              0.0000000000
      1363        11  23SM      C14F            8.3382508926       17.9091153084        5.1663538572  MEMB      11              0.0000000000
      1364        11  23SM      H14F            8.9162723497       17.0427406804        4.7795619898  MEMB      11              0.0000000000
      1365        11  23SM      H14G            9.1961348854       18.6150579730        5.1670823909  MEMB      11              0.0000000000
      1366        11  23SM      C15F            7.1738406969       18.2600187021        4.1972612563  MEMB      11              0.0000000000
      1367        11  23SM      H15F            7.6438151757       18.4794892268        3.2147756070  MEMB      11              0.0000000000
      1368        11  23SM      H15G            6.7347028639       19.1734720688        4.6523239865  MEMB      11              0.0000000000
      1369        11  23SM      C16F            6.1395849126       17.0657028998        3.9024317449  MEMB      11              0.0000000000
      1370        11  23SM      H16F            5.5017162277       17.4503386727        3.0781137715  MEMB      11              0.0000000000
      1371        11  23SM      H16G            5.5115083984       16.9890466082        4.8156483984  MEMB      11              0.0000000000
      1372        11  23SM      C17F            6.6053897259       15.6592840031        3.6958091037  MEMB      11              0.0000000000
      1373        11  23SM      H17F            5.8598261660       14.9175926303        4.0540688848  MEMB      11              0.0000000000
      1374        11  23SM      H17G            7.5075505068       15.4445087399        4.3076086511  MEMB      11              0.0000000000
      1375        11  23SM      C18F            6.9903293849       15.5102961816        2.2409680887  MEMB      11              0.0000000000
      1376        11  23SM      H18F            7.4776043657       16.4770531042        1.9914373844  MEMB      11              0.0000000000
      1377        11  23SM      H18G            6.1165032071       15.3315228276        1.5785570382  MEMB      11              0.0000000000
      1378        11  23SM      C19F            8.0603586745       14.4054040715        2.0235153507  MEMB      11              0.0000000000
      1379        11  23SM      H19F            7.8378672081       13.4834958427        2.6022244988  MEMB      11              0.0000000000
      1380        11  23SM      H19G            8.9996345753       14.8601703609        2.4046567154  MEMB      11              0.0000000000
      1381        11  23SM      C20F            8.2792830297       13.9022305777        0.5979444421  MEMB      11              0.0000000000
      1382        11  23SM      H20F            8.0252156804       14.7303698186       -0.0977248710  MEMB      11              0.0000000000
      1383        11  23SM      H20G            7.7053663199       12.9555064141        0.5049177618  MEMB      11              0.0000000000
      1384        11  23SM      C21F            9.7418232683       13.4518805435        0.3882139155  MEMB      11              0.0000000000
      1385        11  23SM      H21F           10.4205240932       14.2621850022        0.7304028315  MEMB      11              0.0000000000
      1386        11  23SM      H21G            9.9244558766       13.3887303468       -0.7058509330  MEMB      11              0.0000000000
      1387        11  23SM      C22F           10.1445105041       12.0332884150        0.9706370903  MEMB      11              0.0000000000
      1388        11  23SM      H22F            9.3228651002       11.2962260054        0.8443095829  MEMB      11              0.0000000000
      1389        11  23SM      H22G           10.3923360188       12.0424500586        2.0536066045  MEMB      11              0.0000000000
      1390        11  23SM      C23F           11.3670329643       11.3600213743        0.3727793838  MEMB      11              0.0000000000
      1391        11  23SM      H23F           11.3734548403       11.3597148210       -0.7382026386  MEMB      11              0.0000000000
      1392        11  23SM      H23G           11.4135035523       10.2735979318        0.6004758370  MEMB      11              0.0000000000
      1393        11  23SM      H23H           12.1941689730       11.9720352163        0.7918319242  MEMB      11              0.0000000000
      1394        12  DOPC      N              -6.0982847020      -12.6956894545       17.9816823878  MEMB      12              0.0000000000
      1395        12  DOPC      C12            -4.8335295721      -13.4157126327       17.6359038710  MEMB      12              0.0000000000
      1396        12  DOPC      H12A           -4.2396026067      -12.6586527268       17.1454846537  MEMB      12              0.0000000000
      1397        12  DOPC      H12B           -5.1069460294      -14.2556856307       17.0145433804  MEMB      12              0.0000000000
      1398        12  DOPC      C13            -5.9209936557      -11.8275536878       19.1174642146  MEMB      12              0.0000000000
      1399        12  DOPC      H13A           -5.5680634680      -12.4062037340       19.9582997090  MEMB      12              0.0000000000
      1400        12  DOPC      H13B           -5.2288615159      -11.0375591801       18.8659449719  MEMB      12              0.0000000000
      1401        12  DOPC      H13C           -6.8512993411      -11.3346796364       19.3583100217  MEMB      12              0.0000000000
      1402        12  DOPC      C14            -7.2974924655      -13.5889002203       18.3541995074  MEMB      12              0.0000000000
      1403        12  DOPC      H14A           -7.5582912357      -14.0825117286       17.4296824498  MEMB      12              0.0000000000
      1404        12  DOPC      H14B           -7.0803105992      -14.3628953183       19.0754231770  MEMB      12              0.0000000000
      1405        12  DOPC      H14C           -8.1110414754      -12.9564052905       18.6774464585  MEMB      12              0.0000000000
      1406        12  DOPC      C15            -6.4774717296      -11.8084476681       16.7509767775  MEMB      12              0.0000000000
      1407        12  DOPC      H15A           -7.1635296604      -11.0572810139       17.1135688950  MEMB      12              0.0000000000
      1408        12  DOPC      H15B           -7.0030188746      -12.3744836631       15.9961236980  MEMB      12              0.0000000000
      1409        12  DOPC      H15C           -5.6625947853      -11.3660749442       16.1971879137  MEMB      12              0.0000000000
      1410        12  DOPC      C11            -4.0120281642      -14.0422563645       18.7745422192  MEMB      12              0.0000000000
      1411        12  DOPC      H11A           -3.1135026534      -14.5781192216       18.4006119425  MEMB      12              0.0000000000
      1412        12  DOPC      H11B           -3.5240921107      -13.2768152103       19.4151195880  MEMB      12              0.0000000000
      1413        12  DOPC      P              -4.3468257208      -16.2476149031       20.1996794998  MEMB      12              0.0000000000
      1414        12  DOPC      O13            -5.3595763490      -16.8718930765       21.0355987373  MEMB      12              0.0000000000
      1415        12  DOPC      O14            -2.9711085473      -16.1395758609       20.6613156843  MEMB      12              0.0000000000
      1416        12  DOPC      O12            -4.7651984357      -14.7830274178       19.6874760976  MEMB      12              0.0000000000
      1417        12  DOPC      O11            -4.3036806262      -16.9944431198       18.8011610061  MEMB      12              0.0000000000
      1418        12  DOPC      C1             -5.5114219923      -16.9998413486       17.9876367489  MEMB      12              0.0000000000
      1419        12  DOPC      HA             -5.5880742556      -16.1016886639       17.3382008844  MEMB      12              0.0000000000
      1420        12  DOPC      HB             -6.4844641818      -17.0372374055       18.5225307619  MEMB      12              0.0000000000
      1421        12  DOPC      C2             -5.3345880945      -18.2662675644       17.1199939049  MEMB      12              0.0000000000
      1422        12  DOPC      HS             -5.3558613288      -19.1817587644       17.7490757007  MEMB      12              0.0000000000
      1423        12  DOPC      O21            -3.9680151496      -18.1555076268       16.5433265781  MEMB      12              0.0000000000
      1424        12  DOPC      C21            -3.2307422983      -19.2091964274       16.2972697501  MEMB      12              0.0000000000
      1425        12  DOPC      O22            -3.2269734135      -20.3004712126       16.8497340811  MEMB      12              0.0000000000
      1426        12  DOPC      C22            -2.3083700680      -18.9209237152       15.1638539640  MEMB      12              0.0000000000
      1427        12  DOPC      H2R            -1.5833638451      -19.7578900954       15.0734392052  MEMB      12              0.0000000000
      1428        12  DOPC      H2S            -1.7172742375      -18.0081524888       15.3913961467  MEMB      12              0.0000000000
      1429        12  DOPC      C3             -6.2811799539      -18.5485138045       15.9436452776  MEMB      12              0.0000000000
      1430        12  DOPC      HX             -7.2487794052      -18.9399131614       16.3242749140  MEMB      12              0.0000000000
      1431        12  DOPC      HY             -5.8398993518      -19.3705784595       15.3404848182  MEMB      12              0.0000000000
      1432        12  DOPC      O31            -6.4458742350      -17.2590483163       15.2769036576  MEMB      12              0.0000000000
      1433        12  DOPC      C31            -7.2463420712      -17.1897515998       14.2510866050  MEMB      12              0.0000000000
      1434        12  DOPC      O32            -7.9095857964      -18.1113524383       13.8243803395  MEMB      12              0.0000000000
      1435        12  DOPC      C32            -6.9782377364      -15.8482833609       13.6642417499  MEMB      12              0.0000000000
      1436        12  DOPC      H2X            -7.2837322847      -15.1085548027       14.4348234960  MEMB      12              0.0000000000
      1437        12  DOPC      H2Y            -5.8804299676      -15.7214411560       13.5500044091  MEMB      12              0.0000000000
      1438        12  DOPC      C23            -3.0955860139      -18.5480546669       13.9206081815  MEMB      12              0.0000000000
      1439        12  DOPC      H3R            -2.3985036999      -18.2116215381       13.1236072072  MEMB      12              0.0000000000
      1440        12  DOPC      H3S            -3.6947393793      -17.6736278140       14.2533449856  MEMB      12              0.0000000000
      1441        12  DOPC      C24            -3.9105331047      -19.6494567608       13.2121632012  MEMB      12              0.0000000000
      1442        12  DOPC      H4R            -4.5953414853      -20.1510390539       13.9289433168  MEMB      12              0.0000000000
      1443        12  DOPC      H4S            -3.1527425759      -20.3597095933       12.8176819924  MEMB      12              0.0000000000
      1444        12  DOPC      C25            -4.7440488811      -19.2742815797       12.0063084690  MEMB      12              0.0000000000
      1445        12  DOPC      H5R            -5.6083729678      -18.6318755187       12.2794007611  MEMB      12              0.0000000000
      1446        12  DOPC      H5S            -5.1440511946      -20.2608645481       11.6885452049  MEMB      12              0.0000000000
      1447        12  DOPC      C26            -3.8419354143      -18.4912622138       11.0716542314  MEMB      12              0.0000000000
      1448        12  DOPC      H6R            -2.8760218033      -19.0386171176       11.0300072054  MEMB      12              0.0000000000
      1449        12  DOPC      H6S            -3.7372213037      -17.4313914096       11.3879284722  MEMB      12              0.0000000000
      1450        12  DOPC      C27            -4.1603307823      -18.4038799271        9.5785302419  MEMB      12              0.0000000000
      1451        12  DOPC      H7R            -5.1094156326      -17.8424405863        9.4430882046  MEMB      12              0.0000000000
      1452        12  DOPC      H7S            -4.2709153170      -19.4045083862        9.1086005648  MEMB      12              0.0000000000
      1453        12  DOPC      C28            -3.0436921013      -17.6787823731        8.6669047656  MEMB      12              0.0000000000
      1454        12  DOPC      H8R            -2.0631864373      -18.1172167396        8.9509915200  MEMB      12              0.0000000000
      1455        12  DOPC      H8S            -3.0403874980      -16.6072893458        8.9605242687  MEMB      12              0.0000000000
      1456        12  DOPC      C29            -3.3897067015      -18.0451903627        7.2455429417  MEMB      12              0.0000000000
      1457        12  DOPC      H9R            -3.1152539528      -19.0841323345        7.0104358190  MEMB      12              0.0000000000
      1458        12  DOPC      C210           -3.8933544020      -17.1875707605        6.3153758210  MEMB      12              0.0000000000
      1459        12  DOPC      H10R           -4.1418767534      -17.5419657467        5.3041189086  MEMB      12              0.0000000000
      1460        12  DOPC      C211           -4.1545103378      -15.7687328079        6.6245954455  MEMB      12              0.0000000000
      1461        12  DOPC      H11R           -4.6214646554      -15.6292688323        7.6230065143  MEMB      12              0.0000000000
      1462        12  DOPC      H11S           -4.9357109048      -15.5183653096        5.8753539184  MEMB      12              0.0000000000
      1463        12  DOPC      C212           -2.9833821814      -14.8565179161        6.4440449388  MEMB      12              0.0000000000
      1464        12  DOPC      H12R           -2.1237906170      -15.1029260552        7.1033669132  MEMB      12              0.0000000000
      1465        12  DOPC      H12S           -3.2961794614      -13.8332005233        6.7428762888  MEMB      12              0.0000000000
      1466        12  DOPC      C213           -2.3614323093      -14.7389556873        5.0328052371  MEMB      12              0.0000000000
      1467        12  DOPC      H13R           -2.0654814893      -15.6954148314        4.5512256791  MEMB      12              0.0000000000
      1468        12  DOPC      H13S           -1.4537379642      -14.1007944154        5.0890387573  MEMB      12              0.0000000000
      1469        12  DOPC      C214           -3.2449765481      -14.0725629612        3.9580062247  MEMB      12              0.0000000000
      1470        12  DOPC      H14R           -2.7256195238      -13.4593618431        3.1908203186  MEMB      12              0.0000000000
      1471        12  DOPC      H14S           -3.8689681726      -13.3404360679        4.5138349091  MEMB      12              0.0000000000
      1472        12  DOPC      C215           -4.0674890942      -15.1794717354        3.2016909375  MEMB      12              0.0000000000
      1473        12  DOPC      H15R           -3.8407713379      -16.1645615912        3.6626880381  MEMB      12              0.0000000000
      1474        12  DOPC      H15S           -3.8015673141      -15.1567440854        2.1232241383  MEMB      12              0.0000000000
      1475        12  DOPC      C216           -5.6164612297      -15.0115789944        3.1127522127  MEMB      12              0.0000000000
      1476        12  DOPC      H16R           -6.0688511516      -14.8997721625        4.1212973702  MEMB      12              0.0000000000
      1477        12  DOPC      H16S           -5.8762225899      -16.0195044086        2.7242532658  MEMB      12              0.0000000000
      1478        12  DOPC      C217           -6.1765058711      -13.9358025250        2.0975013158  MEMB      12              0.0000000000
      1479        12  DOPC      H17R           -5.8993749854      -12.9679916769        2.5674607049  MEMB      12              0.0000000000
      1480        12  DOPC      H17S           -7.2830172248      -13.9567570330        2.1950425613  MEMB      12              0.0000000000
      1481        12  DOPC      C218           -5.6398844416      -14.0946058193        0.7291959734  MEMB      12              0.0000000000
      1482        12  DOPC      H18R           -4.5789596852      -13.7770301770        0.6402851413  MEMB      12              0.0000000000
      1483        12  DOPC      H18S           -6.2887858430      -13.6043986023       -0.0277364384  MEMB      12              0.0000000000
      1484        12  DOPC      H18T           -5.5878333638      -15.1565854379        0.4069983432  MEMB      12              0.0000000000
      1485        12  DOPC      C33            -7.7839289971      -15.5995542472       12.4056309185  MEMB      12              0.0000000000
      1486        12  DOPC      H3X            -8.8573325909      -15.4333346723       12.6390758356  MEMB      12              0.0000000000
      1487        12  DOPC      H3Y            -7.7210818361      -16.4560644991       11.7008177464  MEMB      12              0.0000000000
      1488        12  DOPC      C34            -7.1816117536      -14.4558232862       11.6086969196  MEMB      12              0.0000000000
      1489        12  DOPC      H4X            -6.0720465959      -14.4652374177       11.6643545674  MEMB      12              0.0000000000
      1490        12  DOPC      H4Y            -7.4060646816      -13.5065466154       12.1405012792  MEMB      12              0.0000000000
      1491        12  DOPC      C35            -7.7013525499      -14.2519323853       10.2053353513  MEMB      12              0.0000000000
      1492        12  DOPC      H5X            -8.8073440527      -14.1755936179       10.2779754670  MEMB      12              0.0000000000
      1493        12  DOPC      H5Y            -7.4289488301      -15.1289496701        9.5800693420  MEMB      12              0.0000000000
      1494        12  DOPC      C36            -7.1408405778      -12.9927425066        9.5142515683  MEMB      12              0.0000000000
      1495        12  DOPC      H6X            -7.6749039816      -12.1347027825        9.9756245379  MEMB      12              0.0000000000
      1496        12  DOPC      H6Y            -6.0808080030      -13.1601919389        9.8016753281  MEMB      12              0.0000000000
      1497        12  DOPC      C37            -7.2029806317      -12.8753599709        8.0445875443  MEMB      12              0.0000000000
      1498        12  DOPC      H7X            -6.5582985986      -11.9922868056        7.8473874567  MEMB      12              0.0000000000
      1499        12  DOPC      H7Y            -6.6802806159      -13.7596997447        7.6214459881  MEMB      12              0.0000000000
      1500        12  DOPC      C38            -8.6031168134      -12.6695154861        7.5419155987  MEMB      12              0.0000000000
      1501        12  DOPC      H8X            -9.0429088281      -11.8080404339        8.0885100616  MEMB      12              0.0000000000
      1502        12  DOPC      H8Y            -9.1713270481      -13.5723134270        7.8524212187  MEMB      12              0.0000000000
      1503        12  DOPC      C39            -8.6711549895      -12.5141838627        6.0659626051  MEMB      12              0.0000000000
      1504        12  DOPC      H9X            -8.1315991153      -11.6372218130        5.6789004844  MEMB      12              0.0000000000
      1505        12  DOPC      C310           -9.4875949654      -13.1170084177        5.1841879321  MEMB      12              0.0000000000
      1506        12  DOPC      H10X           -9.4489291554      -12.7710508505        4.1407235437  MEMB      12              0.0000000000
      1507        12  DOPC      C311          -10.5378748136      -14.1942537011        5.6469744202  MEMB      12              0.0000000000
      1508        12  DOPC      H11X          -11.2257184064      -14.2241914949        4.7750253295  MEMB      12              0.0000000000
      1509        12  DOPC      H11Y          -11.0701160444      -13.9300347308        6.5857121879  MEMB      12              0.0000000000
      1510        12  DOPC      C312           -9.9393280297      -15.5214474236        5.9698419067  MEMB      12              0.0000000000
      1511        12  DOPC      H12X          -10.7059696488      -16.2776377089        6.2432608328  MEMB      12              0.0000000000
      1512        12  DOPC      H12Y           -9.3271299810      -15.3753171095        6.8853639465  MEMB      12              0.0000000000
      1513        12  DOPC      C313           -9.1540189512      -15.9718321144        4.7584600733  MEMB      12              0.0000000000
      1514        12  DOPC      H13X           -8.2147233257      -15.4167174623        4.5489549849  MEMB      12              0.0000000000
      1515        12  DOPC      H13Y           -8.8319718865      -16.9496743255        5.1761098327  MEMB      12              0.0000000000
      1516        12  DOPC      C314           -9.9785215910      -16.2941031853        3.5749062676  MEMB      12              0.0000000000
      1517        12  DOPC      H14X          -10.8048703402      -16.9235299527        3.9689753705  MEMB      12              0.0000000000
      1518        12  DOPC      H14Y          -10.4680301438      -15.4407536324        3.0586717708  MEMB      12              0.0000000000
      1519        12  DOPC      C315           -9.0852096607      -16.9254120881        2.4913681226  MEMB      12              0.0000000000
      1520        12  DOPC      H15X           -8.3128489685      -17.6517405852        2.8233724617  MEMB      12              0.0000000000
      1521        12  DOPC      H15Y           -8.4991385587      -16.0990975976        2.0352477446  MEMB      12              0.0000000000
      1522        12  DOPC      C316          -10.0634595878      -17.5894709369        1.4598170382  MEMB      12              0.0000000000
      1523        12  DOPC      H16X          -10.5365963923      -18.4357061917        2.0023563481  MEMB      12              0.0000000000
      1524        12  DOPC      H16Y          -10.7400762002      -16.7641263570        1.1510818562  MEMB      12              0.0000000000
      1525        12  DOPC      C317           -9.4063484547      -18.1836441287        0.1716570288  MEMB      12              0.0000000000
      1526        12  DOPC      H17X           -8.7857780633      -17.3444349836       -0.2090547314  MEMB      12              0.0000000000
      1527        12  DOPC      H17Y           -8.7630041836      -19.0290402046        0.4968262153  MEMB      12              0.0000000000
      1528        12  DOPC      C318          -10.3451480652      -18.6435708197       -0.9474505669  MEMB      12              0.0000000000
      1529        12  DOPC      H18X          -11.0278649741      -19.4255611516       -0.5515845011  MEMB      12              0.0000000000
      1530        12  DOPC      H18Y          -10.9959043684      -17.8478405478       -1.3689368480  MEMB      12              0.0000000000
      1531        12  DOPC      H18Z           -9.7168286094      -19.1190714738       -1.7306714591  MEMB      12              0.0000000000
      1532        13  23SM      N              15.9601705391        0.1111409385       27.6820544290  MEMB      13              0.0000000000
      1533        13  23SM      C15            14.9286087306       -0.9608243427       28.0855584609  MEMB      13              0.0000000000
      1534        13  23SM      H15A           14.2308010424       -1.0838040742       27.2704877570  MEMB      13              0.0000000000
      1535        13  23SM      H15B           14.5067397283       -0.7243972193       29.0512337127  MEMB      13              0.0000000000
      1536        13  23SM      H15C           15.5525359009       -1.8317339341       28.2220552791  MEMB      13              0.0000000000
      1537        13  23SM      C14            15.2809697823        1.4737309842       27.4429365977  MEMB      13              0.0000000000
      1538        13  23SM      H14A           14.6403502635        1.3690212722       26.5797781140  MEMB      13              0.0000000000
      1539        13  23SM      H14B           15.9780070390        2.2500572335       27.1639086952  MEMB      13              0.0000000000
      1540        13  23SM      H14C           14.6699535771        1.7608135135       28.2859329191  MEMB      13              0.0000000000
      1541        13  23SM      C13            16.9381410314        0.1936612573       28.8460188801  MEMB      13              0.0000000000
      1542        13  23SM      H13A           16.3631233650        0.4667381670       29.7184774803  MEMB      13              0.0000000000
      1543        13  23SM      H13B           17.5383272886        1.0508373847       28.5787634824  MEMB      13              0.0000000000
      1544        13  23SM      H13C           17.4342845324       -0.7627204096       28.9206906746  MEMB      13              0.0000000000
      1545        13  23SM      C12            16.7254537982       -0.3433750726       26.4718283457  MEMB      13              0.0000000000
      1546        13  23SM      H12A           17.2892852716       -1.2126744641       26.7764799164  MEMB      13              0.0000000000
      1547        13  23SM      H12B           17.5439626392        0.3489957603       26.3411918525  MEMB      13              0.0000000000
      1548        13  23SM      C11            16.0020894960       -0.4225394201       25.1412746672  MEMB      13              0.0000000000
      1549        13  23SM      H11A           16.6968938939       -1.0081295425       24.5020155326  MEMB      13              0.0000000000
      1550        13  23SM      H11B           15.9081946860        0.6040089964       24.7269039766  MEMB      13              0.0000000000
      1551        13  23SM      P              14.4614938530       -2.4292865271       24.4906284268  MEMB      13              0.0000000000
      1552        13  23SM      O13            15.3086059594       -3.3692120774       25.2192045356  MEMB      13              0.0000000000
      1553        13  23SM      O14            13.0118575040       -2.6264547427       24.4563590956  MEMB      13              0.0000000000
      1554        13  23SM      O11            14.9422429913       -2.1652081049       23.0037430119  MEMB      13              0.0000000000
      1555        13  23SM      O12            14.7121458180       -1.0378664653       25.1603935465  MEMB      13              0.0000000000
      1556        13  23SM      C1S            14.2066900968       -1.1939183440       22.3039959472  MEMB      13              0.0000000000
      1557        13  23SM      H1S            14.5086122218       -0.1486004529       22.5286611676  MEMB      13              0.0000000000
      1558        13  23SM      H1T            13.1104202732       -1.2332265238       22.4799742392  MEMB      13              0.0000000000
      1559        13  23SM      NF             14.2728316884        0.0829637630       20.0701721536  MEMB      13              0.0000000000
      1560        13  23SM      HNF            13.3957389556        0.3049616463       19.6513236356  MEMB      13              0.0000000000
      1561        13  23SM      C2S            14.4741304427       -1.2109503184       20.7463584790  MEMB      13              0.0000000000
      1562        13  23SM      H2S            15.5502644699       -1.3869536857       20.5335687901  MEMB      13              0.0000000000
      1563        13  23SM      C3S            13.5665483282       -2.3026401734       20.1969382817  MEMB      13              0.0000000000
      1564        13  23SM      H3S            12.5575348572       -2.0562794171       20.5912969605  MEMB      13              0.0000000000
      1565        13  23SM      O3             13.8432085542       -3.6078076422       20.7437024664  MEMB      13              0.0000000000
      1566        13  23SM      HO3            14.3246584281       -3.4668201154       21.5621938709  MEMB      13              0.0000000000
      1567        13  23SM      C4S            13.7257012872       -2.2181278568       18.6999107064  MEMB      13              0.0000000000
      1568        13  23SM      H4S            14.7151693234       -2.5142137769       18.3213793373  MEMB      13              0.0000000000
      1569        13  23SM      C5S            12.7873985884       -1.7502438515       17.8502381245  MEMB      13              0.0000000000
      1570        13  23SM      H5S            11.7673346951       -1.5073649903       18.1826227002  MEMB      13              0.0000000000
      1571        13  23SM      C6S            12.8535793246       -1.6510234778       16.3976770479  MEMB      13              0.0000000000
      1572        13  23SM      H6S            12.0564951140       -0.9420213208       16.0873651657  MEMB      13              0.0000000000
      1573        13  23SM      H6T            12.4506103186       -2.6469270732       16.1146347254  MEMB      13              0.0000000000
      1574        13  23SM      C7S            14.1768215994       -1.4156343916       15.6127443197  MEMB      13              0.0000000000
      1575        13  23SM      H7S            14.8715612249       -2.1230969240       16.1138978178  MEMB      13              0.0000000000
      1576        13  23SM      H7T            14.6154042273       -0.4095728323       15.7853899605  MEMB      13              0.0000000000
      1577        13  23SM      C8S            14.0878195187       -1.7336281695       14.1329555427  MEMB      13              0.0000000000
      1578        13  23SM      H8S            13.4541911106       -2.6426831751       14.0526125249  MEMB      13              0.0000000000
      1579        13  23SM      H8T            15.0853579442       -2.0912276541       13.7992481812  MEMB      13              0.0000000000
      1580        13  23SM      C9S            13.5927314401       -0.5514559026       13.3113069432  MEMB      13              0.0000000000
      1581        13  23SM      H9S            14.1465325743        0.3639668694       13.6106839781  MEMB      13              0.0000000000
      1582        13  23SM      H9T            12.5226190967       -0.3665404671       13.5457989398  MEMB      13              0.0000000000
      1583        13  23SM      C10S           13.5909091795       -0.7459760270       11.7676439363  MEMB      13              0.0000000000
      1584        13  23SM      H10S           13.2247483233       -1.7647688728       11.5180278163  MEMB      13              0.0000000000
      1585        13  23SM      H10T           14.6058548528       -0.6744949830       11.3214409799  MEMB      13              0.0000000000
      1586        13  23SM      C11S           12.5967838738        0.2874411057       11.1598744361  MEMB      13              0.0000000000
      1587        13  23SM      H11S           12.6741148489        1.2922235951       11.6275852218  MEMB      13              0.0000000000
      1588        13  23SM      H11T           11.5236535029        0.0245420722       11.2764780882  MEMB      13              0.0000000000
      1589        13  23SM      C12S           12.9928256995        0.6827753653        9.6491316430  MEMB      13              0.0000000000
      1590        13  23SM      H12S           13.1324943018       -0.3323377709        9.2197598094  MEMB      13              0.0000000000
      1591        13  23SM      H12T           13.9190683888        1.2962526491        9.6555432216  MEMB      13              0.0000000000
      1592        13  23SM      C13S           11.8889176782        1.3634941533        8.8506974101  MEMB      13              0.0000000000
      1593        13  23SM      H13S           11.8612828984        2.3925621658        9.2685199419  MEMB      13              0.0000000000
      1594        13  23SM      H13T           10.9209445063        0.8637975851        9.0689928534  MEMB      13              0.0000000000
      1595        13  23SM      C14S           12.1541241021        1.3868148909        7.2794308942  MEMB      13              0.0000000000
      1596        13  23SM      H14S           12.5891309440        0.4457435357        6.8800876389  MEMB      13              0.0000000000
      1597        13  23SM      H14T           12.8691021084        2.2157900787        7.0898849699  MEMB      13              0.0000000000
      1598        13  23SM      C15S           10.8476776526        1.5648605472        6.4713159214  MEMB      13              0.0000000000
      1599        13  23SM      H15S           10.2733072253        2.4555459386        6.8046311018  MEMB      13              0.0000000000
      1600        13  23SM      H15T           10.2792061209        0.6401475753        6.7081002194  MEMB      13              0.0000000000
      1601        13  23SM      C16S           11.0390841445        1.6889780670        4.9772437824  MEMB      13              0.0000000000
      1602        13  23SM      H16S           12.1291376992        1.7086625229        4.7634284228  MEMB      13              0.0000000000
      1603        13  23SM      H16T           10.6974611251        2.6295075783        4.4945224313  MEMB      13              0.0000000000
      1604        13  23SM      C17S           10.5993478195        0.4825414498        4.1696334357  MEMB      13              0.0000000000
      1605        13  23SM      H17S            9.5480170176        0.5964282988        3.8289659065  MEMB      13              0.0000000000
      1606        13  23SM      H17T           10.7654653298       -0.3960008452        4.8290934062  MEMB      13              0.0000000000
      1607        13  23SM      C18S           11.5226336370        0.2160731052        3.0027770698  MEMB      13              0.0000000000
      1608        13  23SM      H18S           11.5916183836        1.2098777223        2.5109289152  MEMB      13              0.0000000000
      1609        13  23SM      H18T           11.1920282450       -0.6038498427        2.3299129029  MEMB      13              0.0000000000
      1610        13  23SM      H18U           12.5395521432       -0.0553609000        3.3584763812  MEMB      13              0.0000000000
      1611        13  23SM      C1F            15.1890773968        1.1237305579       20.2502930641  MEMB      13              0.0000000000
      1612        13  23SM      OF             16.2212531640        1.0371210075       20.8926765906  MEMB      13              0.0000000000
      1613        13  23SM      C2F            14.7381148056        2.4527090068       19.6922246303  MEMB      13              0.0000000000
      1614        13  23SM      H2F            14.6110206578        3.1556742181       20.5431113356  MEMB      13              0.0000000000
      1615        13  23SM      H2G            13.9399852182        2.4595759415       18.9193966715  MEMB      13              0.0000000000
      1616        13  23SM      C3F            16.0152923628        3.0226170894       18.8764427666  MEMB      13              0.0000000000
      1617        13  23SM      H3F            16.9138895131        2.9106475268       19.5201099046  MEMB      13              0.0000000000
      1618        13  23SM      H3G            15.7794186404        4.0946412590       18.7048383190  MEMB      13              0.0000000000
      1619        13  23SM      C4F            16.2518641546        2.3338675873       17.6350702467  MEMB      13              0.0000000000
      1620        13  23SM      H4F            15.3258295303        2.4080905494       17.0257495812  MEMB      13              0.0000000000
      1621        13  23SM      H4G            16.2924161055        1.2329440287       17.7787509726  MEMB      13              0.0000000000
      1622        13  23SM      C5F            17.3584364456        2.8815815850       16.7455541681  MEMB      13              0.0000000000
      1623        13  23SM      H5F            18.2136924169        3.1805610164       17.3885698555  MEMB      13              0.0000000000
      1624        13  23SM      H5G            17.0498676896        3.8257112867       16.2478336856  MEMB      13              0.0000000000
      1625        13  23SM      C6F            17.9503392651        1.8705051755       15.7119924820  MEMB      13              0.0000000000
      1626        13  23SM      H6F            18.3915183822        1.0223275621       16.2779217447  MEMB      13              0.0000000000
      1627        13  23SM      H6G            18.7650129699        2.3631433085       15.1393355261  MEMB      13              0.0000000000
      1628        13  23SM      C7F            16.9178432691        1.2174597546       14.7977070273  MEMB      13              0.0000000000
      1629        13  23SM      H7F            16.3744876585        2.0620219090       14.3225225771  MEMB      13              0.0000000000
      1630        13  23SM      H7G            16.2472964978        0.6202462491       15.4519433057  MEMB      13              0.0000000000
      1631        13  23SM      C8F            17.5577743511        0.3197313076       13.8065197473  MEMB      13              0.0000000000
      1632        13  23SM      H8F            16.7732038043       -0.2284182329       13.2423372669  MEMB      13              0.0000000000
      1633        13  23SM      H8G            18.2757648732       -0.3406427192       14.3382308585  MEMB      13              0.0000000000
      1634        13  23SM      C9F            18.5442859289        0.9307545801       12.7640085665  MEMB      13              0.0000000000
      1635        13  23SM      H9F            19.2592246602        0.1249105748       12.4923486273  MEMB      13              0.0000000000
      1636        13  23SM      H9G            19.1427958271        1.7604200976       13.1973230634  MEMB      13              0.0000000000
      1637        13  23SM      C10F           17.7582332801        1.6510142147       11.6177380073  MEMB      13              0.0000000000
      1638        13  23SM      H10F           17.2857106133        2.5125824167       12.1361427364  MEMB      13              0.0000000000
      1639        13  23SM      H10G           17.0188087584        0.9063235751       11.2530346790  MEMB      13              0.0000000000
      1640        13  23SM      C11F           18.5336544818        2.3370451486       10.5018305906  MEMB      13              0.0000000000
      1641        13  23SM      H11F           19.2985430294        3.0124334453       10.9412808687  MEMB      13              0.0000000000
      1642        13  23SM      H11G           17.7836405169        3.0634062192       10.1220932498  MEMB      13              0.0000000000
      1643        13  23SM      C12F           19.0167400035        1.4283119186        9.3521591989  MEMB      13              0.0000000000
      1644        13  23SM      H12F           19.1663590304        0.3967904027        9.7367356487  MEMB      13              0.0000000000
      1645        13  23SM      H12G           19.9965098527        1.8067741838        8.9900306722  MEMB      13              0.0000000000
      1646        13  23SM      C13F           18.0712524752        1.3246013804        8.0442035611  MEMB      13              0.0000000000
      1647        13  23SM      H13F           18.6575051714        0.6557044678        7.3784665502  MEMB      13              0.0000000000
      1648        13  23SM      H13G           18.1159397402        2.3008101271        7.5156761898  MEMB      13              0.0000000000
      1649        13  23SM      C14F           16.5940288485        0.9266072849        8.2357580349  MEMB      13              0.0000000000
      1650        13  23SM      H14F           16.1193312703        1.7130759671        8.8606175790  MEMB      13              0.0000000000
      1651        13  23SM      H14G           16.5591058528       -0.0832726486        8.6975408551  MEMB      13              0.0000000000
      1652        13  23SM      C15F           15.8615709328        0.8484494720        6.8464924223  MEMB      13              0.0000000000
      1653        13  23SM      H15F           15.7252410895        1.8361729564        6.3564524320  MEMB      13              0.0000000000
      1654        13  23SM      H15G           14.8468227434        0.4599904072        7.0782378640  MEMB      13              0.0000000000
      1655        13  23SM      C16F           16.4998169368       -0.1962620975        5.8563056148  MEMB      13              0.0000000000
      1656        13  23SM      H16F           16.6975937237       -1.0797169938        6.5002868180  MEMB      13              0.0000000000
      1657        13  23SM      H16G           17.4513941389        0.2467414768        5.4922036156  MEMB      13              0.0000000000
      1658        13  23SM      C17F           15.4935521369       -0.7427147460        4.7898732662  MEMB      13              0.0000000000
      1659        13  23SM      H17F           15.1365038427        0.1289509638        4.2007762120  MEMB      13              0.0000000000
      1660        13  23SM      H17G           14.6638922191       -1.2808760825        5.2962015265  MEMB      13              0.0000000000
      1661        13  23SM      C18F           16.0696241047       -1.5469025008        3.5930167201  MEMB      13              0.0000000000
      1662        13  23SM      H18F           15.2711867740       -2.0684331626        3.0230835227  MEMB      13              0.0000000000
      1663        13  23SM      H18G           16.8085751974       -2.2998997838        3.9412527600  MEMB      13              0.0000000000
      1664        13  23SM      C19F           16.9355772492       -0.7478330466        2.6563682072  MEMB      13              0.0000000000
      1665        13  23SM      H19F           17.4799533813       -1.4657568869        2.0063210528  MEMB      13              0.0000000000
      1666        13  23SM      H19G           17.7469064066       -0.1061389045        3.0617006961  MEMB      13              0.0000000000
      1667        13  23SM      C20F           16.2641569749        0.2721359525        1.6923660019  MEMB      13              0.0000000000
      1668        13  23SM      H20F           15.8397263923        1.0760581687        2.3310286252  MEMB      13              0.0000000000
      1669        13  23SM      H20G           15.3904795513       -0.2515650925        1.2488064382  MEMB      13              0.0000000000
      1670        13  23SM      C21F           17.0767359420        0.9513787209        0.5104910177  MEMB      13              0.0000000000
      1671        13  23SM      H21F           17.1794948025        0.3001567919       -0.3837530532  MEMB      13              0.0000000000
      1672        13  23SM      H21G           18.0985723205        1.2240175947        0.8508417302  MEMB      13              0.0000000000
      1673        13  23SM      C22F           16.2607105217        2.1116871276       -0.1423051023  MEMB      13              0.0000000000
      1674        13  23SM      H22F           16.1908704859        2.8663887413        0.6700181816  MEMB      13              0.0000000000
      1675        13  23SM      H22G           15.2208375435        1.7592459346       -0.3119235945  MEMB      13              0.0000000000
      1676        13  23SM      C23F           16.9310362879        2.7468709257       -1.3397328858  MEMB      13              0.0000000000
      1677        13  23SM      H23F           18.0228765204        2.9259907027       -1.2391240694  MEMB      13              0.0000000000
      1678        13  23SM      H23G           16.5032708017        3.7331632904       -1.6200255890  MEMB      13              0.0000000000
      1679        13  23SM      H23H           16.8041612926        2.0142102705       -2.1652223320  MEMB      13              0.0000000000
      1680        14  CHL1      C3            -12.2165777200       -9.4583178124       17.3260100000  MEMB      14              0.0000000000
      1681        14  CHL1      H3            -11.2179019800       -8.9802729110       17.2341300000  MEMB      14              0.0000000000
      1682        14  CHL1      O3            -12.5704602800       -9.2640253276       18.6739900000  MEMB      14              0.0000000000
      1683        14  CHL1      H3'           -12.1800108356       -8.4452840792       18.9883500000  MEMB      14              0.0000000000
      1684        14  CHL1      C4            -13.3426033336       -8.7347534932       16.4882000000  MEMB      14              0.0000000000
      1685        14  CHL1      H4A           -14.2706304797       -9.2807018009       16.7620900000  MEMB      14              0.0000000000
      1686        14  CHL1      H4B           -13.5913254952       -7.7141348024       16.8498400000  MEMB      14              0.0000000000
      1687        14  CHL1      C5            -13.0303635152       -8.8352198417       15.0107400000  MEMB      14              0.0000000000
      1688        14  CHL1      C6            -12.9461437755       -7.7087493482       14.2894200000  MEMB      14              0.0000000000
      1689        14  CHL1      H6            -13.0910816353       -6.7671099590       14.8392400000  MEMB      14              0.0000000000
      1690        14  CHL1      C7            -12.6610368666       -7.7441739183       12.7900100000  MEMB      14              0.0000000000
      1691        14  CHL1      H7A           -12.9802136566       -6.8203744416       12.2617800000  MEMB      14              0.0000000000
      1692        14  CHL1      H7B           -11.5748687322       -7.5826327969       12.6212900000  MEMB      14              0.0000000000
      1693        14  CHL1      C8            -12.9199815612       -9.0812652860       12.1096000000  MEMB      14              0.0000000000
      1694        14  CHL1      H8            -13.9962428634       -9.3551901339       12.0785500000  MEMB      14              0.0000000000
      1695        14  CHL1      C14           -12.4472297150       -9.1073070991       10.6614300000  MEMB      14              0.0000000000
      1696        14  CHL1      H14           -11.3444813902       -9.0001081802       10.7437200000  MEMB      14              0.0000000000
      1697        14  CHL1      C15           -12.8979846827       -8.0172134527        9.6173300000  MEMB      14              0.0000000000
      1698        14  CHL1      H15A          -13.9288585016       -7.7053244916        9.8900200000  MEMB      14              0.0000000000
      1699        14  CHL1      H15B          -12.2212129798       -7.1459077108        9.7482000000  MEMB      14              0.0000000000
      1700        14  CHL1      C16           -12.8552684003       -8.6778703706        8.2879800000  MEMB      14              0.0000000000
      1701        14  CHL1      H16A          -13.9064231782       -8.7305040219        7.9321300000  MEMB      14              0.0000000000
      1702        14  CHL1      H16B          -12.2118315718       -8.0819639030        7.6059200000  MEMB      14              0.0000000000
      1703        14  CHL1      C17           -12.1908226769      -10.0736656059        8.5132400000  MEMB      14              0.0000000000
      1704        14  CHL1      H17           -11.0852190668      -10.0081988071        8.6007400000  MEMB      14              0.0000000000
      1705        14  CHL1      C13           -12.6369233163      -10.4750852222        9.9582600000  MEMB      14              0.0000000000
      1706        14  CHL1      C18           -14.0927028508      -10.8537364020        9.9841800000  MEMB      14              0.0000000000
      1707        14  CHL1      H18A          -14.2966333567      -11.8172457498        9.4700000000  MEMB      14              0.0000000000
      1708        14  CHL1      H18B          -14.5337012713      -10.9216586722       11.0016300000  MEMB      14              0.0000000000
      1709        14  CHL1      H18C          -14.7258456359      -10.1610160675        9.3895500000  MEMB      14              0.0000000000
      1710        14  CHL1      C12           -11.7751642021      -11.5699885063       10.6699200000  MEMB      14              0.0000000000
      1711        14  CHL1      H12A          -11.9974577876      -12.5476257807       10.1912400000  MEMB      14              0.0000000000
      1712        14  CHL1      H12B          -10.7034663316      -11.3102747839       10.5345100000  MEMB      14              0.0000000000
      1713        14  CHL1      C11           -12.2115020998      -11.5831171279       12.1780600000  MEMB      14              0.0000000000
      1714        14  CHL1      H11A          -13.1581570205      -12.1540841169       12.2883500000  MEMB      14              0.0000000000
      1715        14  CHL1      H11B          -11.4201932623      -12.1894540433       12.6684700000  MEMB      14              0.0000000000
      1716        14  CHL1      C9            -12.2522124988      -10.1980195796       12.9738700000  MEMB      14              0.0000000000
      1717        14  CHL1      H9            -11.2035397731       -9.8512192526       13.0935700000  MEMB      14              0.0000000000
      1718        14  CHL1      C10           -12.8434049670      -10.2848621890       14.4293300000  MEMB      14              0.0000000000
      1719        14  CHL1      C19           -14.1915712248      -10.9020463349       14.6215800000  MEMB      14              0.0000000000
      1720        14  CHL1      H19A          -14.9518736497      -10.3716241906       14.0092900000  MEMB      14              0.0000000000
      1721        14  CHL1      H19B          -14.1295929539      -11.9933259242       14.4226100000  MEMB      14              0.0000000000
      1722        14  CHL1      H19C          -14.5138082163      -10.9573760680       15.6833900000  MEMB      14              0.0000000000
      1723        14  CHL1      C1            -11.6927143728      -10.8736021319       15.3657100000  MEMB      14              0.0000000000
      1724        14  CHL1      H1A           -11.5720070400      -11.9566223941       15.1493400000  MEMB      14              0.0000000000
      1725        14  CHL1      H1B           -10.7877206027      -10.3090703533       15.0548800000  MEMB      14              0.0000000000
      1726        14  CHL1      C2            -11.9846357147      -10.8802018262       16.8595800000  MEMB      14              0.0000000000
      1727        14  CHL1      H2A           -11.1107334669      -11.2185308921       17.4563500000  MEMB      14              0.0000000000
      1728        14  CHL1      H2B           -12.9022852066      -11.4240326602       17.1702200000  MEMB      14              0.0000000000
      1729        14  CHL1      C20           -12.3706288245      -11.0888745575        7.3780600000  MEMB      14              0.0000000000
      1730        14  CHL1      H20           -13.4273653055      -11.4301000975        7.4123300000  MEMB      14              0.0000000000
      1731        14  CHL1      C21           -11.3867844267      -12.2733017183        7.4373500000  MEMB      14              0.0000000000
      1732        14  CHL1      H21A          -11.3531684554      -12.8046984284        6.4622600000  MEMB      14              0.0000000000
      1733        14  CHL1      H21B          -11.8968468164      -13.0195121103        8.0833500000  MEMB      14              0.0000000000
      1734        14  CHL1      H21C          -10.3427711328      -11.9575032073        7.6486300000  MEMB      14              0.0000000000
      1735        14  CHL1      C22           -12.2958948119      -10.4431036528        5.9647800000  MEMB      14              0.0000000000
      1736        14  CHL1      H22A          -13.2109580509       -9.8200880048        5.8707400000  MEMB      14              0.0000000000
      1737        14  CHL1      H22B          -11.3678415536       -9.8359653899        5.8984400000  MEMB      14              0.0000000000
      1738        14  CHL1      C23           -12.3044038285      -11.2797878690        4.6505200000  MEMB      14              0.0000000000
      1739        14  CHL1      H23A          -11.3535546915      -11.8425865558        4.5344900000  MEMB      14              0.0000000000
      1740        14  CHL1      H23B          -13.2073586197      -11.9216428851        4.7343600000  MEMB      14              0.0000000000
      1741        14  CHL1      C24           -12.4363259543      -10.2852927027        3.4836200000  MEMB      14              0.0000000000
      1742        14  CHL1      H24A          -13.2305950620       -9.5489359111        3.7310900000  MEMB      14              0.0000000000
      1743        14  CHL1      H24B          -11.5322254364       -9.6506466332        3.3646500000  MEMB      14              0.0000000000
      1744        14  CHL1      C25           -12.8057771966      -10.7884362452        2.1313000000  MEMB      14              0.0000000000
      1745        14  CHL1      H25           -13.7808096601      -11.3154494759        2.2079800000  MEMB      14              0.0000000000
      1746        14  CHL1      C26           -12.8447684633       -9.6735486543        1.1607900000  MEMB      14              0.0000000000
      1747        14  CHL1      H26A          -13.7140680199       -9.1175639557        1.5725100000  MEMB      14              0.0000000000
      1748        14  CHL1      H26B          -11.9205546065       -9.0838239349        0.9808100000  MEMB      14              0.0000000000
      1749        14  CHL1      H26C          -13.1622418557      -10.0076633388        0.1499000000  MEMB      14              0.0000000000
      1750        14  CHL1      C27           -11.8142336136      -11.7527590750        1.5055100000  MEMB      14              0.0000000000
      1751        14  CHL1      H27A          -12.0529851376      -11.9567007683        0.4398000000  MEMB      14              0.0000000000
      1752        14  CHL1      H27B          -10.7889310468      -11.3263130214        1.5405100000  MEMB      14              0.0000000000
      1753        14  CHL1      H27C          -11.9086446108      -12.7396239831        2.0070000000  MEMB      14              0.0000000000
      1754        15  DOPE      N               5.3077322193      -13.1072503623       17.5265274174  MEMB      15              0.0000000000
      1755        15  DOPE      HN1             4.7390408864      -12.4325316467       18.0769317744  MEMB      15              0.0000000000
      1756        15  DOPE      HN2             5.5352152146      -12.8857327623       16.5361833693  MEMB      15              0.0000000000
      1757        15  DOPE      HN3             4.6012299886      -13.8619720751       17.4131704436  MEMB      15              0.0000000000
      1758        15  DOPE      C12             6.4830736269      -13.6537736429       18.2692360225  MEMB      15              0.0000000000
      1759        15  DOPE      H12A            6.3750545954      -14.7582983906       18.2174873055  MEMB      15              0.0000000000
      1760        15  DOPE      H12B            6.2266220946      -13.3374930305       19.3029285740  MEMB      15              0.0000000000
      1761        15  DOPE      C11             7.8277125724      -13.1571159342       17.8509556631  MEMB      15              0.0000000000
      1762        15  DOPE      H11A            7.7200507183      -12.1191780410       17.4696226226  MEMB      15              0.0000000000
      1763        15  DOPE      H11B            8.3832111181      -13.7460089110       17.0900696858  MEMB      15              0.0000000000
      1764        15  DOPE      P               9.1992296131      -14.4195978187       19.7564599712  MEMB      15              0.0000000000
      1765        15  DOPE      O13             8.2038555236      -14.7352764662       20.7507131068  MEMB      15              0.0000000000
      1766        15  DOPE      O14            10.5812246581      -14.2126598299       20.2794636556  MEMB      15              0.0000000000
      1767        15  DOPE      O11             9.2069813366      -15.4657955594       18.5629614809  MEMB      15              0.0000000000
      1768        15  DOPE      O12             8.7109692661      -13.0612471921       19.0036826857  MEMB      15              0.0000000000
      1769        15  DOPE      C1              9.4348512164      -16.8604758631       18.7639889354  MEMB      15              0.0000000000
      1770        15  DOPE      HA              8.7966612177      -17.2318383920       19.5941240279  MEMB      15              0.0000000000
      1771        15  DOPE      HB             10.5040884398      -17.0344200139       19.0105571009  MEMB      15              0.0000000000
      1772        15  DOPE      C2              9.0176755008      -17.7729602403       17.5287106686  MEMB      15              0.0000000000
      1773        15  DOPE      HS              9.8588641148      -18.4718244539       17.3329764885  MEMB      15              0.0000000000
      1774        15  DOPE      O21             8.7424838851      -17.0788332555       16.3366620169  MEMB      15              0.0000000000
      1775        15  DOPE      C21             9.6896802300      -16.3305730684       15.8141565612  MEMB      15              0.0000000000
      1776        15  DOPE      O22            10.8369589053      -16.1625869222       16.1832434034  MEMB      15              0.0000000000
      1777        15  DOPE      C22             9.0036691989      -15.4779351744       14.7209280871  MEMB      15              0.0000000000
      1778        15  DOPE      H2R             8.1610078967      -14.8771179279       15.1249844654  MEMB      15              0.0000000000
      1779        15  DOPE      H2S             8.6649124339      -16.1653384958       13.9165393514  MEMB      15              0.0000000000
      1780        15  DOPE      C3              7.6491526051      -18.5233964635       17.8762311730  MEMB      15              0.0000000000
      1781        15  DOPE      HX              6.9849103368      -17.6871611292       18.1825215055  MEMB      15              0.0000000000
      1782        15  DOPE      HY              7.9528310428      -19.1260128412       18.7588148999  MEMB      15              0.0000000000
      1783        15  DOPE      O31             7.2814847917      -19.3519422931       16.7979636815  MEMB      15              0.0000000000
      1784        15  DOPE      C31             6.4571254466      -18.8471135332       15.8967389971  MEMB      15              0.0000000000
      1785        15  DOPE      O32             5.8317699067      -17.8113272328       15.9959702372  MEMB      15              0.0000000000
      1786        15  DOPE      C32             6.4051755365      -19.7179497776       14.6954584671  MEMB      15              0.0000000000
      1787        15  DOPE      H2X             7.3526804476      -20.2808598097       14.5551446194  MEMB      15              0.0000000000
      1788        15  DOPE      H2Y             5.4467369318      -20.2700621840       14.7998056862  MEMB      15              0.0000000000
      1789        15  DOPE      C23             9.9723103321      -14.4189885061       14.0817597338  MEMB      15              0.0000000000
      1790        15  DOPE      H3R            10.8695395887      -14.9132342364       13.6516177669  MEMB      15              0.0000000000
      1791        15  DOPE      H3S            10.1769776241      -13.8135438166       14.9905330296  MEMB      15              0.0000000000
      1792        15  DOPE      C24             9.3009876545      -13.6830294320       12.9850214914  MEMB      15              0.0000000000
      1793        15  DOPE      H4R             8.3682954687      -13.1431786569       13.2551463771  MEMB      15              0.0000000000
      1794        15  DOPE      H4S             8.9763235079      -14.3897005703       12.1915925012  MEMB      15              0.0000000000
      1795        15  DOPE      C25            10.1660523341      -12.7594237246       12.1323352283  MEMB      15              0.0000000000
      1796        15  DOPE      H5R            10.8985907473      -13.3892615655       11.5836886313  MEMB      15              0.0000000000
      1797        15  DOPE      H5S            10.6267629363      -11.9765794869       12.7720393886  MEMB      15              0.0000000000
      1798        15  DOPE      C26             9.2636740362      -12.0905713503       11.1131878701  MEMB      15              0.0000000000
      1799        15  DOPE      H6R             8.4067412037      -11.8039547814       11.7595919783  MEMB      15              0.0000000000
      1800        15  DOPE      H6S             8.8788041898      -12.8751111305       10.4271164838  MEMB      15              0.0000000000
      1801        15  DOPE      C27             9.6820519965      -10.7610153864       10.3848403107  MEMB      15              0.0000000000
      1802        15  DOPE      H7R            10.7233801556      -10.8691201799       10.0129933051  MEMB      15              0.0000000000
      1803        15  DOPE      H7S             9.6648556348       -9.9096459650       11.0984193751  MEMB      15              0.0000000000
      1804        15  DOPE      C28             8.7875500773      -10.5107877373        9.1186201447  MEMB      15              0.0000000000
      1805        15  DOPE      H8R             8.9913802194      -11.4726291464        8.6012842581  MEMB      15              0.0000000000
      1806        15  DOPE      H8S             9.2981218680       -9.6388480614        8.6567125711  MEMB      15              0.0000000000
      1807        15  DOPE      C29             7.4438704410      -10.1095375482        9.4315510804  MEMB      15              0.0000000000
      1808        15  DOPE      H9R             7.4307176086       -9.1026040131        9.8741707555  MEMB      15              0.0000000000
      1809        15  DOPE      C210            6.2400487203      -10.7328299455        9.2106877241  MEMB      15              0.0000000000
      1810        15  DOPE      H10R            5.3318587991      -10.1711163596        9.4746356014  MEMB      15              0.0000000000
      1811        15  DOPE      C211            6.0400192240      -12.1040523778        8.5808138647  MEMB      15              0.0000000000
      1812        15  DOPE      H11R            5.2129908268      -12.7348156299        8.9713041444  MEMB      15              0.0000000000
      1813        15  DOPE      H11S            6.9388267046      -12.7570939765        8.5824770261  MEMB      15              0.0000000000
      1814        15  DOPE      C212            5.7164547015      -11.9847407576        7.0761914818  MEMB      15              0.0000000000
      1815        15  DOPE      H12R            4.8176502942      -11.3318438835        7.0621456920  MEMB      15              0.0000000000
      1816        15  DOPE      H12S            5.3214653195      -12.9394104729        6.6676450962  MEMB      15              0.0000000000
      1817        15  DOPE      C213            6.9687613905      -11.3981255587        6.3221104547  MEMB      15              0.0000000000
      1818        15  DOPE      H13R            7.6619153869      -12.2475586227        6.1423269309  MEMB      15              0.0000000000
      1819        15  DOPE      H13S            7.5980139808      -10.6822444695        6.8929659788  MEMB      15              0.0000000000
      1820        15  DOPE      C214            6.5593787518      -10.6869468970        5.0390026570  MEMB      15              0.0000000000
      1821        15  DOPE      H14R            7.4025949151      -10.0452269423        4.7050820254  MEMB      15              0.0000000000
      1822        15  DOPE      H14S            5.7680831619       -9.9702280618        5.3463885170  MEMB      15              0.0000000000
      1823        15  DOPE      C215            5.9815920953      -11.5458347940        3.9202570076  MEMB      15              0.0000000000
      1824        15  DOPE      H15R            5.5583708423      -10.7875280667        3.2273092553  MEMB      15              0.0000000000
      1825        15  DOPE      H15S            5.0736141343      -12.0801803012        4.2729214025  MEMB      15              0.0000000000
      1826        15  DOPE      C216            7.0859357178      -12.3995313842        3.1700656555  MEMB      15              0.0000000000
      1827        15  DOPE      H16R            6.4419431568      -12.9732353390        2.4697391482  MEMB      15              0.0000000000
      1828        15  DOPE      H16S            7.3983662066      -13.2374415833        3.8293185377  MEMB      15              0.0000000000
      1829        15  DOPE      C217            8.2423407701      -11.5526475033        2.5782028798  MEMB      15              0.0000000000
      1830        15  DOPE      H17R            8.8107925597      -11.1750282277        3.4548940605  MEMB      15              0.0000000000
      1831        15  DOPE      H17S            7.8112796731      -10.6660483340        2.0659047485  MEMB      15              0.0000000000
      1832        15  DOPE      C218            9.0098695789      -12.3886141503        1.5442712149  MEMB      15              0.0000000000
      1833        15  DOPE      H18R            8.3613009114      -12.6216422126        0.6728484089  MEMB      15              0.0000000000
      1834        15  DOPE      H18S            9.3548453489      -13.2337788004        2.1775242506  MEMB      15              0.0000000000
      1835        15  DOPE      H18T            9.8348242789      -11.7532965959        1.1567894951  MEMB      15              0.0000000000
      1836        15  DOPE      C33             6.2603401011      -18.7710906929       13.4907818048  MEMB      15              0.0000000000
      1837        15  DOPE      H3X             7.1129255538      -18.0611920879       13.5496284755  MEMB      15              0.0000000000
      1838        15  DOPE      H3Y             5.3712684257      -18.1188618851       13.6266864011  MEMB      15              0.0000000000
      1839        15  DOPE      C34             6.3594475944      -19.5019729706       12.1896666094  MEMB      15              0.0000000000
      1840        15  DOPE      H4X             7.4117409731      -19.8464386667       12.0983264479  MEMB      15              0.0000000000
      1841        15  DOPE      H4Y             5.5803455520      -20.2845185973       12.0674194066  MEMB      15              0.0000000000
      1842        15  DOPE      C35             6.2143332441      -18.5421380344       11.0451370533  MEMB      15              0.0000000000
      1843        15  DOPE      H5X             5.1641557711      -18.1980872529       10.9307813275  MEMB      15              0.0000000000
      1844        15  DOPE      H5Y             6.4081073147      -19.0996889683       10.1039098268  MEMB      15              0.0000000000
      1845        15  DOPE      C36             7.2709733411      -17.3951204634       11.0873806744  MEMB      15              0.0000000000
      1846        15  DOPE      H6X             8.2271445066      -17.9559661681       11.1616082282  MEMB      15              0.0000000000
      1847        15  DOPE      H6Y             7.3617659143      -16.7737974263       12.0039155822  MEMB      15              0.0000000000
      1848        15  DOPE      C37             7.3868613704      -16.5253317364        9.7812488970  MEMB      15              0.0000000000
      1849        15  DOPE      H7X             6.5880278062      -16.8850342321        9.0980214238  MEMB      15              0.0000000000
      1850        15  DOPE      H7Y             7.2043901311      -15.4693907516       10.0745297697  MEMB      15              0.0000000000
      1851        15  DOPE      C38             8.7168875448      -16.3813586350        8.9491038848  MEMB      15              0.0000000000
      1852        15  DOPE      H8X             9.0039387504      -17.4124399136        8.6511191780  MEMB      15              0.0000000000
      1853        15  DOPE      H8Y             9.4290580215      -15.9099133202        9.6596476827  MEMB      15              0.0000000000
      1854        15  DOPE      C39             8.5929047846      -15.4028442025        7.8117823139  MEMB      15              0.0000000000
      1855        15  DOPE      H9X             8.6201337057      -14.3411941108        8.0984147655  MEMB      15              0.0000000000
      1856        15  DOPE      C310            8.3018666715      -15.7438050380        6.5769928980  MEMB      15              0.0000000000
      1857        15  DOPE      H10X            8.3658705777      -14.9364157105        5.8326636302  MEMB      15              0.0000000000
      1858        15  DOPE      C311            8.0108145418      -17.0604857680        5.9778269547  MEMB      15              0.0000000000
      1859        15  DOPE      H11X            7.9977072202      -17.9018439456        6.7032684786  MEMB      15              0.0000000000
      1860        15  DOPE      H11Y            7.0060427806      -17.0623152136        5.5037477548  MEMB      15              0.0000000000
      1861        15  DOPE      C312            8.9880788230      -17.7228037058        4.9150630792  MEMB      15              0.0000000000
      1862        15  DOPE      H12X            8.7747124523      -18.8086042917        4.8159016983  MEMB      15              0.0000000000
      1863        15  DOPE      H12Y           10.0599869069      -17.7152248615        5.2070845857  MEMB      15              0.0000000000
      1864        15  DOPE      C313            8.9078445565      -17.0886693087        3.5162822199  MEMB      15              0.0000000000
      1865        15  DOPE      H13X            9.1823569592      -16.0292269309        3.7074524029  MEMB      15              0.0000000000
      1866        15  DOPE      H13Y            9.6588651304      -17.4844217214        2.7995750743  MEMB      15              0.0000000000
      1867        15  DOPE      C314            7.5554710315      -17.1927779648        2.7693091534  MEMB      15              0.0000000000
      1868        15  DOPE      H14X            6.8307455610      -16.7380158323        3.4780297048  MEMB      15              0.0000000000
      1869        15  DOPE      H14Y            7.3787551685      -18.2629175751        2.5286984850  MEMB      15              0.0000000000
      1870        15  DOPE      C315            7.4713697176      -16.4489603480        1.4768080926  MEMB      15              0.0000000000
      1871        15  DOPE      H15X            8.1587351152      -16.9994135608        0.7994232947  MEMB      15              0.0000000000
      1872        15  DOPE      H15Y            7.7722456571      -15.4006691643        1.6886595869  MEMB      15              0.0000000000
      1873        15  DOPE      C316            6.0364101228      -16.3540810126        0.8172686912  MEMB      15              0.0000000000
      1874        15  DOPE      H16X            6.0375521446      -16.0325605583       -0.2461915995  MEMB      15              0.0000000000
      1875        15  DOPE      H16Y            5.2911276731      -15.8198890464        1.4445753545  MEMB      15              0.0000000000
      1876        15  DOPE      C317            5.3310441428      -17.7195204321        0.6828564184  MEMB      15              0.0000000000
      1877        15  DOPE      H17X            5.9173232755      -18.2195827604       -0.1174773183  MEMB      15              0.0000000000
      1878        15  DOPE      H17Y            5.2852092702      -18.2671585386        1.6484199959  MEMB      15              0.0000000000
      1879        15  DOPE      C318            3.8759131572      -17.5843130499        0.1828652676  MEMB      15              0.0000000000
      1880        15  DOPE      H18X            3.4493453791      -18.5994610481        0.3306343649  MEMB      15              0.0000000000
      1881        15  DOPE      H18Y            3.2017182775      -16.9375822580        0.7841308759  MEMB      15              0.0000000000
      1882        15  DOPE      H18Z            3.7909189876      -17.2650063358       -0.8778607813  MEMB      15              0.0000000000
      1883        16  DOPC      N               0.9140208794       16.4159083524       20.7792622374  MEMB      16              0.0000000000
      1884        16  DOPC      C12             1.8004943072       17.4101722694       20.0794964030  MEMB      16              0.0000000000
      1885        16  DOPC      H12A            2.8089280615       17.0777854703       20.2769310027  MEMB      16              0.0000000000
      1886        16  DOPC      H12B            1.6612234487       18.3971012309       20.4953987394  MEMB      16              0.0000000000
      1887        16  DOPC      C13             1.2177630770       14.9537686485       20.5325282318  MEMB      16              0.0000000000
      1888        16  DOPC      H13A            2.2116227113       14.7744179802       20.9152505026  MEMB      16              0.0000000000
      1889        16  DOPC      H13B            0.5442217636       14.4178854001       21.1848864898  MEMB      16              0.0000000000
      1890        16  DOPC      H13C            1.0342686443       14.5377097026       19.5529239931  MEMB      16              0.0000000000
      1891        16  DOPC      C14            -0.4701920125       16.6616639074       20.5310258061  MEMB      16              0.0000000000
      1892        16  DOPC      H14A           -0.6147946715       17.0745796465       19.5436096462  MEMB      16              0.0000000000
      1893        16  DOPC      H14B           -1.1058341998       15.7923146150       20.6122095489  MEMB      16              0.0000000000
      1894        16  DOPC      H14C           -0.8812724759       17.4365861030       21.1610321729  MEMB      16              0.0000000000
      1895        16  DOPC      C15             1.1296296442       16.5471009904       22.2879587391  MEMB      16              0.0000000000
      1896        16  DOPC      H15A            0.8101399091       17.5473081096       22.5407669752  MEMB      16              0.0000000000
      1897        16  DOPC      H15B            2.1711670354       16.3705657510       22.5125361461  MEMB      16              0.0000000000
      1898        16  DOPC      H15C            0.4925860900       15.8799640869       22.8496562462  MEMB      16              0.0000000000
      1899        16  DOPC      C11             1.6500856947       17.5218544048       18.6201991504  MEMB      16              0.0000000000
      1900        16  DOPC      H11A            0.7367140359       18.0731435552       18.3101127614  MEMB      16              0.0000000000
      1901        16  DOPC      H11B            2.5592226296       18.1052851704       18.3605848861  MEMB      16              0.0000000000
      1902        16  DOPC      P               2.6813619164       15.5576608820       17.2226216223  MEMB      16              0.0000000000
      1903        16  DOPC      O13             2.1276655271       14.2437883519       16.7363199847  MEMB      16              0.0000000000
      1904        16  DOPC      O14             3.8688709179       15.4693504934       18.1359760819  MEMB      16              0.0000000000
      1905        16  DOPC      O12             1.5465437884       16.2512258865       18.0282547928  MEMB      16              0.0000000000
      1906        16  DOPC      O11             3.0064104550       16.5219499185       16.0463569910  MEMB      16              0.0000000000
      1907        16  DOPC      C1              1.9989549020       16.7956892439       15.0394587292  MEMB      16              0.0000000000
      1908        16  DOPC      HA              1.4161363685       17.6802015282       15.3745431471  MEMB      16              0.0000000000
      1909        16  DOPC      HB              1.3737268212       15.8946919921       14.8616533415  MEMB      16              0.0000000000
      1910        16  DOPC      C2              2.6063810933       17.1124951872       13.6921169189  MEMB      16              0.0000000000
      1911        16  DOPC      HS              1.9033746435       17.5940203522       12.9792100333  MEMB      16              0.0000000000
      1912        16  DOPC      O21             3.1704760630       15.8943668329       13.2313471686  MEMB      16              0.0000000000
      1913        16  DOPC      C21             2.6598604995       15.4550792424       12.1088550134  MEMB      16              0.0000000000
      1914        16  DOPC      O22             1.8027855588       15.9652442126       11.3887077827  MEMB      16              0.0000000000
      1915        16  DOPC      C22             3.1438223887       14.0424266971       11.7738296138  MEMB      16              0.0000000000
      1916        16  DOPC      H2R             2.5839952365       13.2279887579       12.2813782278  MEMB      16              0.0000000000
      1917        16  DOPC      H2S             4.1904223965       13.8451122628       12.0900836154  MEMB      16              0.0000000000
      1918        16  DOPC      C3              3.7545732636       18.1934597747       13.9482301567  MEMB      16              0.0000000000
      1919        16  DOPC      HX              4.2121525291       17.9411396404       14.9286773153  MEMB      16              0.0000000000
      1920        16  DOPC      HY              3.2531781192       19.1832330755       14.0054393335  MEMB      16              0.0000000000
      1921        16  DOPC      O31             4.7267986237       18.1071620053       12.9381238190  MEMB      16              0.0000000000
      1922        16  DOPC      C31             5.3361534736       19.2148902728       12.6238946583  MEMB      16              0.0000000000
      1923        16  DOPC      O32             5.1075025075       20.3224637983       13.1299977216  MEMB      16              0.0000000000
      1924        16  DOPC      C32             6.3012844461       18.9072264150       11.4324872919  MEMB      16              0.0000000000
      1925        16  DOPC      H2X             7.3136456676       19.3039466324       11.6606502804  MEMB      16              0.0000000000
      1926        16  DOPC      H2Y             6.3082167022       17.8127673717       11.2416142735  MEMB      16              0.0000000000
      1927        16  DOPC      C23             3.3338284930       13.8770685404       10.2356749376  MEMB      16              0.0000000000
      1928        16  DOPC      H3R             2.3422960216       14.0489716895        9.7648954130  MEMB      16              0.0000000000
      1929        16  DOPC      H3S             3.5147067857       12.7938010834       10.0679377493  MEMB      16              0.0000000000
      1930        16  DOPC      C24             4.3516722448       14.7790573775        9.5583269967  MEMB      16              0.0000000000
      1931        16  DOPC      H4R             5.3848238137       14.5285303291        9.8810566241  MEMB      16              0.0000000000
      1932        16  DOPC      H4S             4.2762991086       15.8167307458        9.9480368136  MEMB      16              0.0000000000
      1933        16  DOPC      C25             4.2391154358       14.7692533724        8.0355730968  MEMB      16              0.0000000000
      1934        16  DOPC      H5R             3.7146660338       13.8259513749        7.7720292821  MEMB      16              0.0000000000
      1935        16  DOPC      H5S             5.2231842332       14.8796968891        7.5318546479  MEMB      16              0.0000000000
      1936        16  DOPC      C26             3.3929880849       15.8417285827        7.4627594401  MEMB      16              0.0000000000
      1937        16  DOPC      H6R             3.6608580523       16.7675877685        8.0153455424  MEMB      16              0.0000000000
      1938        16  DOPC      H6S             2.3191461571       15.7975540386        7.7442436151  MEMB      16              0.0000000000
      1939        16  DOPC      C27             3.5693297571       16.0854397297        5.9329311018  MEMB      16              0.0000000000
      1940        16  DOPC      H7R             4.6488694086       16.2084587827        5.7010217710  MEMB      16              0.0000000000
      1941        16  DOPC      H7S             3.0703044639       17.0700986415        5.8074660300  MEMB      16              0.0000000000
      1942        16  DOPC      C28             3.0383413484       15.0470026851        4.8982066406  MEMB      16              0.0000000000
      1943        16  DOPC      H8R             3.5843307148       14.1426372944        5.2422113788  MEMB      16              0.0000000000
      1944        16  DOPC      H8S             3.1195285043       15.4489914624        3.8656681904  MEMB      16              0.0000000000
      1945        16  DOPC      C29             1.5888013193       14.6581222233        5.1881608112  MEMB      16              0.0000000000
      1946        16  DOPC      H9R             1.5101668948       13.6178838455        4.8392751277  MEMB      16              0.0000000000
      1947        16  DOPC      C210            0.4411447885       15.3794005237        5.5235447416  MEMB      16              0.0000000000
      1948        16  DOPC      H10R           -0.4776806529       14.8155440576        5.7422351638  MEMB      16              0.0000000000
      1949        16  DOPC      C211            0.4250653153       16.8830814031        5.7388795089  MEMB      16              0.0000000000
      1950        16  DOPC      H11R            1.1631390193       17.3306455206        5.0394127394  MEMB      16              0.0000000000
      1951        16  DOPC      H11S            0.7000042463       17.1479752065        6.7822209998  MEMB      16              0.0000000000
      1952        16  DOPC      C212           -1.0522798334       17.3289331078        5.3128900855  MEMB      16              0.0000000000
      1953        16  DOPC      H12R           -1.0663581783       18.4268050394        5.4825953045  MEMB      16              0.0000000000
      1954        16  DOPC      H12S           -1.7648006601       16.7600642162        5.9477313859  MEMB      16              0.0000000000
      1955        16  DOPC      C213           -1.4063621883       17.0094359897        3.8535426981  MEMB      16              0.0000000000
      1956        16  DOPC      H13R           -2.4049982620       17.4783011716        3.7223463477  MEMB      16              0.0000000000
      1957        16  DOPC      H13S           -1.5277632342       15.9151406219        3.7048796963  MEMB      16              0.0000000000
      1958        16  DOPC      C214           -0.4433499716       17.7386841860        2.9080551500  MEMB      16              0.0000000000
      1959        16  DOPC      H14R            0.4640021046       17.1024652471        2.8289426282  MEMB      16              0.0000000000
      1960        16  DOPC      H14S           -0.0424196187       18.7034779820        3.2858759467  MEMB      16              0.0000000000
      1961        16  DOPC      C215           -1.1069720687       17.9819184268        1.5181557700  MEMB      16              0.0000000000
      1962        16  DOPC      H15R           -0.5341227554       18.5866204700        0.7829698012  MEMB      16              0.0000000000
      1963        16  DOPC      H15S           -2.0515690134       18.5553807962        1.6330407769  MEMB      16              0.0000000000
      1964        16  DOPC      C216           -1.4824932145       16.6963265330        0.6787280318  MEMB      16              0.0000000000
      1965        16  DOPC      H16R           -2.4404742178       16.8011604636        0.1259142169  MEMB      16              0.0000000000
      1966        16  DOPC      H16S           -1.8309735737       15.9944534379        1.4662915832  MEMB      16              0.0000000000
      1967        16  DOPC      C217           -0.2997672298       16.2127431314       -0.1245170372  MEMB      16              0.0000000000
      1968        16  DOPC      H17R            0.5580958095       16.1127195051        0.5743302778  MEMB      16              0.0000000000
      1969        16  DOPC      H17S           -0.0734000473       16.9560135149       -0.9186384931  MEMB      16              0.0000000000
      1970        16  DOPC      C218           -0.3710010280       14.8237778066       -0.8493895738  MEMB      16              0.0000000000
      1971        16  DOPC      H18R           -1.0796799393       14.8242301836       -1.7050145665  MEMB      16              0.0000000000
      1972        16  DOPC      H18S           -0.8150880437       14.1309488303       -0.1030000791  MEMB      16              0.0000000000
      1973        16  DOPC      H18T            0.6116899377       14.4452568898       -1.2034533020  MEMB      16              0.0000000000
      1974        16  DOPC      C33             5.6643103187       19.6244974213       10.2734705695  MEMB      16              0.0000000000
      1975        16  DOPC      H3X             6.3020002538       19.6366346590        9.3637864704  MEMB      16              0.0000000000
      1976        16  DOPC      H3Y             5.4520598629       20.6511793767       10.6411585949  MEMB      16              0.0000000000
      1977        16  DOPC      C34             4.3324584383       18.9922157411        9.8759316418  MEMB      16              0.0000000000
      1978        16  DOPC      H4X             3.6364442649       19.3549323138       10.6622661626  MEMB      16              0.0000000000
      1979        16  DOPC      H4Y             4.1492369632       17.8965163725        9.8898452682  MEMB      16              0.0000000000
      1980        16  DOPC      C35             3.7173143093       19.6651439600        8.5956016059  MEMB      16              0.0000000000
      1981        16  DOPC      H5X             4.1052676191       19.1897713822        7.6694083413  MEMB      16              0.0000000000
      1982        16  DOPC      H5Y             4.0144762182       20.7332568918        8.5238317884  MEMB      16              0.0000000000
      1983        16  DOPC      C36             2.1727540455       19.6339563893        8.6045034825  MEMB      16              0.0000000000
      1984        16  DOPC      H6X             1.8031100472       18.5866972832        8.6350456542  MEMB      16              0.0000000000
      1985        16  DOPC      H6Y             1.8742847792       20.2687718267        9.4660406090  MEMB      16              0.0000000000
      1986        16  DOPC      C37             1.5176569706       20.2549124246        7.3369707651  MEMB      16              0.0000000000
      1987        16  DOPC      H7X             1.8927762545       19.7365404179        6.4287322962  MEMB      16              0.0000000000
      1988        16  DOPC      H7Y             0.4203600682       20.1102789336        7.4336231431  MEMB      16              0.0000000000
      1989        16  DOPC      C38             1.8089526286       21.7214357684        7.1847755753  MEMB      16              0.0000000000
      1990        16  DOPC      H8X             2.9060912461       21.7340721056        7.0102810522  MEMB      16              0.0000000000
      1991        16  DOPC      H8Y             1.6335325957       22.2369928760        8.1531503156  MEMB      16              0.0000000000
      1992        16  DOPC      C39             1.1277677473       22.3837889304        6.0418750974  MEMB      16              0.0000000000
      1993        16  DOPC      H9X             0.1535551481       22.8426397763        6.2662981665  MEMB      16              0.0000000000
      1994        16  DOPC      C310            1.5254176397       22.4417365436        4.7592346666  MEMB      16              0.0000000000
      1995        16  DOPC      H10X            0.9715410254       22.9565357997        3.9603589654  MEMB      16              0.0000000000
      1996        16  DOPC      C311            2.7710337987       21.8569110222        4.1219225623  MEMB      16              0.0000000000
      1997        16  DOPC      H11X            3.5082220483       21.5794208131        4.9054235286  MEMB      16              0.0000000000
      1998        16  DOPC      H11Y            3.1733496284       22.5833773859        3.3838782287  MEMB      16              0.0000000000
      1999        16  DOPC      C312            2.5316362744       20.4941911696        3.5069683673  MEMB      16              0.0000000000
      2000        16  DOPC      H12X            1.9495268264       20.6260236085        2.5699046971  MEMB      16              0.0000000000
      2001        16  DOPC      H12Y            1.8894598877       19.8493603061        4.1442467457  MEMB      16              0.0000000000
      2002        16  DOPC      C313            3.8405698653       19.7712393519        3.1738974639  MEMB      16              0.0000000000
      2003        16  DOPC      H13X            4.4919811625       20.4202643484        2.5503985631  MEMB      16              0.0000000000
      2004        16  DOPC      H13Y            4.3253733483       19.5315801052        4.1443868634  MEMB      16              0.0000000000
      2005        16  DOPC      C314            3.5259119070       18.5987759007        2.3016378546  MEMB      16              0.0000000000
      2006        16  DOPC      H14X            2.9528242669       17.8560185114        2.8967876155  MEMB      16              0.0000000000
      2007        16  DOPC      H14Y            2.8331627965       18.9165975124        1.4933004392  MEMB      16              0.0000000000
      2008        16  DOPC      C315            4.8184674319       18.0350404013        1.8777514278  MEMB      16              0.0000000000
      2009        16  DOPC      H15X            5.5062350691       18.0434626514        2.7502341510  MEMB      16              0.0000000000
      2010        16  DOPC      H15Y            5.3671730006       18.6663802567        1.1465522208  MEMB      16              0.0000000000
      2011        16  DOPC      C316            4.6665261993       16.6206227707        1.4070400097  MEMB      16              0.0000000000
      2012        16  DOPC      H16X            5.5678115246       16.1370949072        0.9732113778  MEMB      16              0.0000000000
      2013        16  DOPC      H16Y            4.6021286959       15.9543584238        2.2937559644  MEMB      16              0.0000000000
      2014        16  DOPC      C317            3.5748161681       16.5446682453        0.4075812211  MEMB      16              0.0000000000
      2015        16  DOPC      H17X            2.5750395325       16.9813282009        0.6175705740  MEMB      16              0.0000000000
      2016        16  DOPC      H17Y            3.8641307225       16.9130312840       -0.5998549232  MEMB      16              0.0000000000
      2017        16  DOPC      C318            3.2743111623       15.0316443242        0.3100838052  MEMB      16              0.0000000000
      2018        16  DOPC      H18X            2.7324788956       14.7348622013        1.2334796342  MEMB      16              0.0000000000
      2019        16  DOPC      H18Y            2.6033851380       14.7951152533       -0.5432814562  MEMB      16              0.0000000000
      2020        16  DOPC      H18Z            4.2542869595       14.5123302919        0.2446492631  MEMB      16              0.0000000000
      2021        17  23SM      N              14.9836137839        6.4675326784       27.7994878092  MEMB      17              0.0000000000
      2022        17  23SM      C15            13.7896819637        6.6975700278       26.9265452331  MEMB      17              0.0000000000
      2023        17  23SM      H15A           12.9372225241        6.3768324028       27.5069245264  MEMB      17              0.0000000000
      2024        17  23SM      H15B           13.9411655135        6.0962501775       26.0423126731  MEMB      17              0.0000000000
      2025        17  23SM      H15C           13.7397116383        7.7324811727       26.6218128157  MEMB      17              0.0000000000
      2026        17  23SM      C14            14.7410801649        7.1158846938       29.1313156721  MEMB      17              0.0000000000
      2027        17  23SM      H14A           13.7911890463        6.8305477543       29.5587377727  MEMB      17              0.0000000000
      2028        17  23SM      H14B           14.7139228679        8.1843332106       28.9761377974  MEMB      17              0.0000000000
      2029        17  23SM      H14C           15.5891292699        6.8516990882       29.7456600234  MEMB      17              0.0000000000
      2030        17  23SM      C13            15.1043957685        4.9879472055       28.1105639122  MEMB      17              0.0000000000
      2031        17  23SM      H13A           15.9353155869        4.9408373706       28.7988609427  MEMB      17              0.0000000000
      2032        17  23SM      H13B           15.4156264073        4.4050413850       27.2563062656  MEMB      17              0.0000000000
      2033        17  23SM      H13C           14.1967884217        4.6908176772       28.6149080262  MEMB      17              0.0000000000
      2034        17  23SM      C12            16.2217550747        7.0120825928       27.1850365233  MEMB      17              0.0000000000
      2035        17  23SM      H12A           16.9703466119        6.7346742450       27.9123983352  MEMB      17              0.0000000000
      2036        17  23SM      H12B           16.1990032534        8.0915712614       27.2092547164  MEMB      17              0.0000000000
      2037        17  23SM      C11            16.5101200254        6.5001041279       25.7578884091  MEMB      17              0.0000000000
      2038        17  23SM      H11A           16.5180400875        5.3978166471       25.6192512795  MEMB      17              0.0000000000
      2039        17  23SM      H11B           17.5913720575        6.6742040823       25.5710618064  MEMB      17              0.0000000000
      2040        17  23SM      P              15.6576307760        8.5205134105       24.2684072037  MEMB      17              0.0000000000
      2041        17  23SM      O13            14.3749494196        8.8681999643       23.7330306302  MEMB      17              0.0000000000
      2042        17  23SM      O14            16.2649454552        9.4448584425       25.2451457814  MEMB      17              0.0000000000
      2043        17  23SM      O11            16.6937611304        8.3251631128       23.0586385140  MEMB      17              0.0000000000
      2044        17  23SM      O12            15.5922605352        7.0375164809       24.7839403130  MEMB      17              0.0000000000
      2045        17  23SM      C1S            17.4187409022        9.4468052687       22.5371070036  MEMB      17              0.0000000000
      2046        17  23SM      H1S            18.5134958826        9.2806343724       22.6277700080  MEMB      17              0.0000000000
      2047        17  23SM      H1T            17.2049594613       10.3980516332       23.0697879972  MEMB      17              0.0000000000
      2048        17  23SM      NF             15.6932943747        9.3193806504       20.8007824646  MEMB      17              0.0000000000
      2049        17  23SM      HNF            15.4059067264        8.4240903118       20.4693124175  MEMB      17              0.0000000000
      2050        17  23SM      C2S            17.1317594050        9.4754648000       20.9945343006  MEMB      17              0.0000000000
      2051        17  23SM      H2S            17.4747405548       10.4839780242       20.6789616153  MEMB      17              0.0000000000
      2052        17  23SM      C3S            17.8534666019        8.3530148268       20.2532728982  MEMB      17              0.0000000000
      2053        17  23SM      H3S            17.5061696891        7.3312532146       20.5172978854  MEMB      17              0.0000000000
      2054        17  23SM      O3             19.2619532466        8.3100488162       20.4941446165  MEMB      17              0.0000000000
      2055        17  23SM      HO3            19.3554343530        8.8295897313       21.2959792617  MEMB      17              0.0000000000
      2056        17  23SM      C4S            17.5396238269        8.4981572202       18.7776501366  MEMB      17              0.0000000000
      2057        17  23SM      H4S            16.8018352081        7.8153830525       18.3310100003  MEMB      17              0.0000000000
      2058        17  23SM      C5S            18.2126938597        9.3265781323       17.9834830677  MEMB      17              0.0000000000
      2059        17  23SM      H5S            18.9737638140        9.9700922393       18.4489537356  MEMB      17              0.0000000000
      2060        17  23SM      C6S            18.0151066766        9.6079401644       16.4833187858  MEMB      17              0.0000000000
      2061        17  23SM      H6S            18.9479168261        9.3951381527       15.9186060618  MEMB      17              0.0000000000
      2062        17  23SM      H6T            17.6208745878       10.6465337400       16.4683081154  MEMB      17              0.0000000000
      2063        17  23SM      C7S            17.0619008122        8.5865318795       15.7767544745  MEMB      17              0.0000000000
      2064        17  23SM      H7S            16.0280206290        8.6984070971       16.1677748114  MEMB      17              0.0000000000
      2065        17  23SM      H7T            17.3897534705        7.5365434945       15.9328248992  MEMB      17              0.0000000000
      2066        17  23SM      C8S            16.9713429278        8.8371354251       14.2230328807  MEMB      17              0.0000000000
      2067        17  23SM      H8S            16.6907361043        9.8948797021       14.0313104840  MEMB      17              0.0000000000
      2068        17  23SM      H8T            16.1372068155        8.2470909255       13.7867012107  MEMB      17              0.0000000000
      2069        17  23SM      C9S            18.2184596090        8.4149588258       13.4904662034  MEMB      17              0.0000000000
      2070        17  23SM      H9S            18.4135752113        7.3366132369       13.6732821003  MEMB      17              0.0000000000
      2071        17  23SM      H9T            19.1335987715        8.9978247010       13.7294397323  MEMB      17              0.0000000000
      2072        17  23SM      C10S           18.0044696362        8.5116557941       11.9268019635  MEMB      17              0.0000000000
      2073        17  23SM      H10S           17.7289058844        9.4973627492       11.4946362602  MEMB      17              0.0000000000
      2074        17  23SM      H10T           17.0732012446        7.9424099057       11.7193900748  MEMB      17              0.0000000000
      2075        17  23SM      C11S           19.0358312483        7.8682609645       11.0182461085  MEMB      17              0.0000000000
      2076        17  23SM      H11S           19.0634648524        6.7670232475       11.1625815625  MEMB      17              0.0000000000
      2077        17  23SM      H11T           20.0134023780        8.3718417160       11.1766198759  MEMB      17              0.0000000000
      2078        17  23SM      C12S           18.5983428660        8.0425464510        9.5757085247  MEMB      17              0.0000000000
      2079        17  23SM      H12S           18.6801922987        9.0977666975        9.2378741153  MEMB      17              0.0000000000
      2080        17  23SM      H12T           17.5965883282        7.5714302433        9.4815889718  MEMB      17              0.0000000000
      2081        17  23SM      C13S           19.4656272157        7.2612168332        8.5730076320  MEMB      17              0.0000000000
      2082        17  23SM      H13S           19.1822846496        6.1919927109        8.6769198831  MEMB      17              0.0000000000
      2083        17  23SM      H13T           20.5327048832        7.2724697106        8.8821038380  MEMB      17              0.0000000000
      2084        17  23SM      C14S           19.4060217588        7.6436007899        7.0980612866  MEMB      17              0.0000000000
      2085        17  23SM      H14S           20.2001092077        6.9711282907        6.7087956451  MEMB      17              0.0000000000
      2086        17  23SM      H14T           19.7170224096        8.6860604282        6.8725003479  MEMB      17              0.0000000000
      2087        17  23SM      C15S           18.0281079499        7.3600034806        6.4188753372  MEMB      17              0.0000000000
      2088        17  23SM      H15S           17.2953053558        8.1473936841        6.6969713318  MEMB      17              0.0000000000
      2089        17  23SM      H15T           17.6238047416        6.4018909650        6.8098731710  MEMB      17              0.0000000000
      2090        17  23SM      C16S           18.2000600548        7.1415417284        4.8627241968  MEMB      17              0.0000000000
      2091        17  23SM      H16S           17.2164501145        6.7983015920        4.4766950553  MEMB      17              0.0000000000
      2092        17  23SM      H16T           18.8951298358        6.2922258886        4.6899188981  MEMB      17              0.0000000000
      2093        17  23SM      C17S           18.7802847274        8.4058185693        4.1178433828  MEMB      17              0.0000000000
      2094        17  23SM      H17S           19.8017160686        8.7008134395        4.4402983907  MEMB      17              0.0000000000
      2095        17  23SM      H17T           18.0824355443        9.2690287617        4.1647038560  MEMB      17              0.0000000000
      2096        17  23SM      C18S           18.8005163053        8.0579375847        2.6051563354  MEMB      17              0.0000000000
      2097        17  23SM      H18S           19.4687934204        7.2191715379        2.3149859869  MEMB      17              0.0000000000
      2098        17  23SM      H18T           19.1562465685        8.9730554615        2.0852174040  MEMB      17              0.0000000000
      2099        17  23SM      H18U           17.8027233371        7.6400762668        2.3519324528  MEMB      17              0.0000000000
      2100        17  23SM      C1F            14.7860077535       10.2796122597       21.0079506056  MEMB      17              0.0000000000
      2101        17  23SM      OF             15.2049630370       11.4740465600       21.2447244969  MEMB      17              0.0000000000
      2102        17  23SM      C2F            13.2959105014       10.0452895978       21.0934836594  MEMB      17              0.0000000000
      2103        17  23SM      H2F            12.8434669272       10.4693673283       22.0153152600  MEMB      17              0.0000000000
      2104        17  23SM      H2G            13.2365503358        8.9497751159       21.2685416190  MEMB      17              0.0000000000
      2105        17  23SM      C3F            12.4988241352       10.5259967812       19.8169122426  MEMB      17              0.0000000000
      2106        17  23SM      H3F            12.4270692394       11.6145865051       20.0270182582  MEMB      17              0.0000000000
      2107        17  23SM      H3G            11.4659122843       10.1303333531       19.9211449202  MEMB      17              0.0000000000
      2108        17  23SM      C4F            13.2176315930       10.0347702334       18.4732454428  MEMB      17              0.0000000000
      2109        17  23SM      H4F            13.4077774622        8.9414144299       18.5255815711  MEMB      17              0.0000000000
      2110        17  23SM      H4G            14.2292955933       10.4356486708       18.2492959851  MEMB      17              0.0000000000
      2111        17  23SM      C5F            12.3082430475       10.1315678968       17.2198056959  MEMB      17              0.0000000000
      2112        17  23SM      H5F            12.0790349685       11.1496271823       16.8385708345  MEMB      17              0.0000000000
      2113        17  23SM      H5G            11.3237458724        9.7160093833       17.5237757338  MEMB      17              0.0000000000
      2114        17  23SM      C6F            12.7828299949        9.2225638132       16.0692627646  MEMB      17              0.0000000000
      2115        17  23SM      H6F            11.9353177635        8.9306848580       15.4128696305  MEMB      17              0.0000000000
      2116        17  23SM      H6G            13.2540026627        8.2954760290       16.4601911550  MEMB      17              0.0000000000
      2117        17  23SM      C7F            13.6813499748        9.8238889468       14.9736664759  MEMB      17              0.0000000000
      2118        17  23SM      H7F            13.9590443711        8.8873045648       14.4445008582  MEMB      17              0.0000000000
      2119        17  23SM      H7G            14.5623546046       10.3194696704       15.4347002325  MEMB      17              0.0000000000
      2120        17  23SM      C8F            12.9492824230       10.7767229173       14.0493487370  MEMB      17              0.0000000000
      2121        17  23SM      H8F            13.7439151911       11.3067795820       13.4819698073  MEMB      17              0.0000000000
      2122        17  23SM      H8G            12.4439712068       11.5563004884       14.6586435851  MEMB      17              0.0000000000
      2123        17  23SM      C9F            11.8914616607       10.2273601557       13.0675320501  MEMB      17              0.0000000000
      2124        17  23SM      H9F            11.6656666782       11.0913763289       12.4066131271  MEMB      17              0.0000000000
      2125        17  23SM      H9G            10.9651749797        9.9160349303       13.5961063625  MEMB      17              0.0000000000
      2126        17  23SM      C10F           12.2161928858        9.0211763885       12.2359111933  MEMB      17              0.0000000000
      2127        17  23SM      H10F           12.4602011450        8.1623488867       12.8971197411  MEMB      17              0.0000000000
      2128        17  23SM      H10G           13.0566244250        9.2663342710       11.5518846147  MEMB      17              0.0000000000
      2129        17  23SM      C11F           10.9965256523        8.6126470769       11.3339520315  MEMB      17              0.0000000000
      2130        17  23SM      H11F           10.6939809996        9.4280665659       10.6426645531  MEMB      17              0.0000000000
      2131        17  23SM      H11G           10.1321430578        8.5763861795       12.0309809428  MEMB      17              0.0000000000
      2132        17  23SM      C12F           11.3737939266        7.3196110350       10.5458554770  MEMB      17              0.0000000000
      2133        17  23SM      H12F           10.4387512456        6.9138283272       10.1038629028  MEMB      17              0.0000000000
      2134        17  23SM      H12G           11.6542895042        6.5896020991       11.3349875823  MEMB      17              0.0000000000
      2135        17  23SM      C13F           12.5766913889        7.4928440182        9.5853197719  MEMB      17              0.0000000000
      2136        17  23SM      H13F           12.6475009946        6.6689652541        8.8433433031  MEMB      17              0.0000000000
      2137        17  23SM      H13G           13.4354825275        7.5411787910       10.2885010108  MEMB      17              0.0000000000
      2138        17  23SM      C14F           12.4444963334        8.7700516179        8.6677281185  MEMB      17              0.0000000000
      2139        17  23SM      H14F           12.0911412799        9.6576877816        9.2347949345  MEMB      17              0.0000000000
      2140        17  23SM      H14G           11.6280305808        8.4676779626        7.9776035236  MEMB      17              0.0000000000
      2141        17  23SM      C15F           13.8207747352        8.9978862910        7.9522927973  MEMB      17              0.0000000000
      2142        17  23SM      H15F           14.5157631260        9.1646158442        8.8028889362  MEMB      17              0.0000000000
      2143        17  23SM      H15G           13.7713391642        9.9489525860        7.3801486346  MEMB      17              0.0000000000
      2144        17  23SM      C16F           14.3355536766        7.8948683488        6.9941158630  MEMB      17              0.0000000000
      2145        17  23SM      H16F           14.5804549082        6.9493610877        7.5236051125  MEMB      17              0.0000000000
      2146        17  23SM      H16G           15.2997201452        8.1651340074        6.5128041975  MEMB      17              0.0000000000
      2147        17  23SM      C17F           13.3501620056        7.6171649085        5.8070959518  MEMB      17              0.0000000000
      2148        17  23SM      H17F           13.0491749935        8.5264124921        5.2440727543  MEMB      17              0.0000000000
      2149        17  23SM      H17G           12.3478721038        7.2896759736        6.1570771019  MEMB      17              0.0000000000
      2150        17  23SM      C18F           13.9074580157        6.5776061049        4.6652453862  MEMB      17              0.0000000000
      2151        17  23SM      H18F           13.5063555419        5.5581622835        4.8501018852  MEMB      17              0.0000000000
      2152        17  23SM      H18G           14.9929968998        6.4699640617        4.8758157699  MEMB      17              0.0000000000
      2153        17  23SM      C19F           13.6526731375        6.8275863286        3.1787644929  MEMB      17              0.0000000000
      2154        17  23SM      H19F           13.7804190537        7.9307879929        3.1479724253  MEMB      17              0.0000000000
      2155        17  23SM      H19G           12.6365222677        6.5093972306        2.8617244501  MEMB      17              0.0000000000
      2156        17  23SM      C20F           14.6794238480        6.1685106170        2.2671507213  MEMB      17              0.0000000000
      2157        17  23SM      H20F           15.7033411197        6.5137298742        2.5254866288  MEMB      17              0.0000000000
      2158        17  23SM      H20G           14.5542171601        6.5277032795        1.2232986244  MEMB      17              0.0000000000
      2159        17  23SM      C21F           14.6743014147        4.6220882869        2.2807538347  MEMB      17              0.0000000000
      2160        17  23SM      H21F           14.9096805944        4.2240565805        3.2909459985  MEMB      17              0.0000000000
      2161        17  23SM      H21G           15.4573728384        4.2957885435        1.5633642725  MEMB      17              0.0000000000
      2162        17  23SM      C22F           13.3618330558        3.9255216537        1.8676803443  MEMB      17              0.0000000000
      2163        17  23SM      H22F           12.6534652881        4.7232083317        1.5574666883  MEMB      17              0.0000000000
      2164        17  23SM      H22G           12.8757370110        3.4238034435        2.7315715931  MEMB      17              0.0000000000
      2165        17  23SM      C23F           13.4692139835        2.7918652986        0.8529602075  MEMB      17              0.0000000000
      2166        17  23SM      H23F           13.7303043808        3.2119762726       -0.1418569118  MEMB      17              0.0000000000
      2167        17  23SM      H23G           12.4570481343        2.3618217637        0.6951507672  MEMB      17              0.0000000000
      2168        17  23SM      H23H           14.2068169624        2.0306099634        1.1857549306  MEMB      17              0.0000000000
      2169        18  DOPC      N              15.3004620360      -11.2330802080       20.3993813377  MEMB      18              0.0000000000
      2170        18  DOPC      C12            16.3911750663      -10.8945717368       19.3622173836  MEMB      18              0.0000000000
      2171        18  DOPC      H12A           16.4779239898      -11.7013971544       18.6495411759  MEMB      18              0.0000000000
      2172        18  DOPC      H12B           17.3450766637      -10.7861461358       19.8569049106  MEMB      18              0.0000000000
      2173        18  DOPC      C13            15.9353538449      -12.2743395608       21.3734603301  MEMB      18              0.0000000000
      2174        18  DOPC      H13A           16.6966909330      -11.7596746799       21.9408101538  MEMB      18              0.0000000000
      2175        18  DOPC      H13B           15.1148131059      -12.6155020402       21.9872363771  MEMB      18              0.0000000000
      2176        18  DOPC      H13C           16.2810625373      -13.0722741241       20.7330026868  MEMB      18              0.0000000000
      2177        18  DOPC      C14            14.2096631993      -11.9005535507       19.6567902196  MEMB      18              0.0000000000
      2178        18  DOPC      H14A           13.7968662846      -11.1973419896       18.9486290643  MEMB      18              0.0000000000
      2179        18  DOPC      H14B           14.5761118855      -12.7818953843       19.1514668665  MEMB      18              0.0000000000
      2180        18  DOPC      H14C           13.4230679857      -12.3104615192       20.2729422941  MEMB      18              0.0000000000
      2181        18  DOPC      C15            14.7764360127      -10.0705212283       21.1700428698  MEMB      18              0.0000000000
      2182        18  DOPC      H15A           15.5837592933       -9.6697626063       21.7650399987  MEMB      18              0.0000000000
      2183        18  DOPC      H15B           13.9093455865      -10.3911101527       21.7284125639  MEMB      18              0.0000000000
      2184        18  DOPC      H15C           14.4040762104       -9.2803398836       20.5349352579  MEMB      18              0.0000000000
      2185        18  DOPC      C11            16.2920970265       -9.5678009230       18.6047583737  MEMB      18              0.0000000000
      2186        18  DOPC      H11A           16.5156796892       -8.7528105090       19.3259535182  MEMB      18              0.0000000000
      2187        18  DOPC      H11B           17.0174047138       -9.5604876696       17.7632144431  MEMB      18              0.0000000000
      2188        18  DOPC      P              14.3640053057       -8.1176728312       17.7439652004  MEMB      18              0.0000000000
      2189        18  DOPC      O13            14.7798916067       -7.0594107651       18.6960761103  MEMB      18              0.0000000000
      2190        18  DOPC      O14            12.9531580450       -8.3016234796       17.4600255197  MEMB      18              0.0000000000
      2191        18  DOPC      O12            14.9552606251       -9.4917478710       18.2450030600  MEMB      18              0.0000000000
      2192        18  DOPC      O11            15.1499947327       -7.9890912441       16.2882796283  MEMB      18              0.0000000000
      2193        18  DOPC      C1             14.7070616475       -8.8658562572       15.2648412868  MEMB      18              0.0000000000
      2194        18  DOPC      HA             13.8505139533       -8.3707265493       14.7593773690  MEMB      18              0.0000000000
      2195        18  DOPC      HB             14.4070482677       -9.8105835051       15.7666414660  MEMB      18              0.0000000000
      2196        18  DOPC      C2             15.9054752633       -9.0461352086       14.1964551017  MEMB      18              0.0000000000
      2197        18  DOPC      HS             16.8429986407       -9.1136032273       14.7887546124  MEMB      18              0.0000000000
      2198        18  DOPC      O21            15.9790246808       -7.8361599050       13.3756276778  MEMB      18              0.0000000000
      2199        18  DOPC      C21            17.0983942138       -7.6048621975       12.7670117761  MEMB      18              0.0000000000
      2200        18  DOPC      O22            18.1323229913       -8.2523032414       12.9283342201  MEMB      18              0.0000000000
      2201        18  DOPC      C22            16.9664127714       -6.3587056344       11.9584854330  MEMB      18              0.0000000000
      2202        18  DOPC      H2R            17.0276172495       -5.4302004690       12.5654885784  MEMB      18              0.0000000000
      2203        18  DOPC      H2S            15.9292283591       -6.3223487660       11.5619407794  MEMB      18              0.0000000000
      2204        18  DOPC      C3             15.6918049484      -10.2685263489       13.3535898269  MEMB      18              0.0000000000
      2205        18  DOPC      HX             14.8273574727      -10.0327932954       12.6967172767  MEMB      18              0.0000000000
      2206        18  DOPC      HY             15.4373025844      -11.1726957145       13.9469087502  MEMB      18              0.0000000000
      2207        18  DOPC      O31            16.8487952706      -10.5048367299       12.5718990386  MEMB      18              0.0000000000
      2208        18  DOPC      C31            16.7732431086      -11.0548383415       11.3442078501  MEMB      18              0.0000000000
      2209        18  DOPC      O32            15.7676494999      -11.1506447379       10.6763386827  MEMB      18              0.0000000000
      2210        18  DOPC      C32            18.1502266862      -11.6083071898       10.9796552721  MEMB      18              0.0000000000
      2211        18  DOPC      H2X            18.9503117453      -11.0205793786       11.4784146168  MEMB      18              0.0000000000
      2212        18  DOPC      H2Y            18.2752391324      -12.6907193358       11.1966266981  MEMB      18              0.0000000000
      2213        18  DOPC      C23            18.0330918222       -6.3096336968       10.8903070611  MEMB      18              0.0000000000
      2214        18  DOPC      H3R            18.1945443683       -7.2899812042       10.3931420079  MEMB      18              0.0000000000
      2215        18  DOPC      H3S            18.9566737782       -5.9198546290       11.3692535976  MEMB      18              0.0000000000
      2216        18  DOPC      C24            17.5739187470       -5.4180563612        9.6890717876  MEMB      18              0.0000000000
      2217        18  DOPC      H4R            18.4178001121       -5.0245110177        9.0830128642  MEMB      18              0.0000000000
      2218        18  DOPC      H4S            16.9727971344       -4.5634730678       10.0667779220  MEMB      18              0.0000000000
      2219        18  DOPC      C25            16.7580821174       -6.1148287736        8.6603615651  MEMB      18              0.0000000000
      2220        18  DOPC      H5R            15.9084626783       -6.6037322220        9.1832774371  MEMB      18              0.0000000000
      2221        18  DOPC      H5S            17.3649271078       -6.8149708278        8.0472861831  MEMB      18              0.0000000000
      2222        18  DOPC      C26            16.1350909662       -5.0519409362        7.7357028891  MEMB      18              0.0000000000
      2223        18  DOPC      H6R            16.9044713621       -4.5326936954        7.1251645091  MEMB      18              0.0000000000
      2224        18  DOPC      H6S            15.6681844217       -4.2310276376        8.3208703643  MEMB      18              0.0000000000
      2225        18  DOPC      C27            14.9309068044       -5.7458286762        6.9028790282  MEMB      18              0.0000000000
      2226        18  DOPC      H7R            14.6242145957       -4.9222604061        6.2231759641  MEMB      18              0.0000000000
      2227        18  DOPC      H7S            14.1802908631       -6.1099775648        7.6365629247  MEMB      18              0.0000000000
      2228        18  DOPC      C28            15.3193922322       -6.8905216394        5.9367867116  MEMB      18              0.0000000000
      2229        18  DOPC      H8R            15.8842750417       -7.6142290326        6.5624665624  MEMB      18              0.0000000000
      2230        18  DOPC      H8S            15.9588452824       -6.4973354034        5.1177472152  MEMB      18              0.0000000000
      2231        18  DOPC      C29            14.0507093772       -7.4888008299        5.3023203386  MEMB      18              0.0000000000
      2232        18  DOPC      H9R            13.4447151460       -6.7452932143        4.7638338880  MEMB      18              0.0000000000
      2233        18  DOPC      C210           13.7273383055       -8.7796276472        5.3291594142  MEMB      18              0.0000000000
      2234        18  DOPC      H10R           12.8368294545       -8.9896043456        4.7185009272  MEMB      18              0.0000000000
      2235        18  DOPC      C211           14.4640151915       -9.8610019582        6.0319099505  MEMB      18              0.0000000000
      2236        18  DOPC      H11R           13.8142098217      -10.5615612416        6.5987356183  MEMB      18              0.0000000000
      2237        18  DOPC      H11S           15.1941082651       -9.4602444217        6.7672186079  MEMB      18              0.0000000000
      2238        18  DOPC      C212           15.3556214542      -10.6965524590        5.0602970906  MEMB      18              0.0000000000
      2239        18  DOPC      H12R           16.0765037601      -10.1280075905        4.4346726072  MEMB      18              0.0000000000
      2240        18  DOPC      H12S           14.5669908995      -11.0640698721        4.3694180074  MEMB      18              0.0000000000
      2241        18  DOPC      C213           16.1390857988      -11.8525780353        5.6877699676  MEMB      18              0.0000000000
      2242        18  DOPC      H13R           15.5848338659      -12.8136370703        5.6286825793  MEMB      18              0.0000000000
      2243        18  DOPC      H13S           16.3667233637      -11.6779774044        6.7610906567  MEMB      18              0.0000000000
      2244        18  DOPC      C214           17.4038670739      -12.1828267695        4.8915367198  MEMB      18              0.0000000000
      2245        18  DOPC      H14R           17.9445355771      -13.0242640651        5.3752536620  MEMB      18              0.0000000000
      2246        18  DOPC      H14S           17.9459718306      -11.2131339179        4.9033430818  MEMB      18              0.0000000000
      2247        18  DOPC      C215           17.2974160949      -12.5898820862        3.4338295474  MEMB      18              0.0000000000
      2248        18  DOPC      H15R           16.9301720329      -11.6979499544        2.8825492887  MEMB      18              0.0000000000
      2249        18  DOPC      H15S           16.6402706409      -13.4709278341        3.2718430299  MEMB      18              0.0000000000
      2250        18  DOPC      C216           18.7170971426      -12.9344354068        2.8859268460  MEMB      18              0.0000000000
      2251        18  DOPC      H16R           19.1561681661      -13.6754008451        3.5877161965  MEMB      18              0.0000000000
      2252        18  DOPC      H16S           19.3813642061      -12.0487862911        2.9791799007  MEMB      18              0.0000000000
      2253        18  DOPC      C217           18.7360790177      -13.3774213456        1.4860037070  MEMB      18              0.0000000000
      2254        18  DOPC      H17R           18.2354721623      -14.3668470293        1.5549292330  MEMB      18              0.0000000000
      2255        18  DOPC      H17S           19.7754423813      -13.5442776194        1.1307520315  MEMB      18              0.0000000000
      2256        18  DOPC      C218           17.9214909088      -12.5034667952        0.4889462030  MEMB      18              0.0000000000
      2257        18  DOPC      H18R           17.8913095211      -13.0421235400       -0.4822703761  MEMB      18              0.0000000000
      2258        18  DOPC      H18S           18.3469193065      -11.4771833345        0.4975402687  MEMB      18              0.0000000000
      2259        18  DOPC      H18T           16.8810332234      -12.4405027382        0.8733973947  MEMB      18              0.0000000000
      2260        18  DOPC      C33            18.3547717059      -11.4113345502        9.5007584856  MEMB      18              0.0000000000
      2261        18  DOPC      H3X            17.5714639074      -11.9458578171        8.9219367107  MEMB      18              0.0000000000
      2262        18  DOPC      H3Y            19.3374260023      -11.8004036007        9.1582143322  MEMB      18              0.0000000000
      2263        18  DOPC      C34            18.5156883869       -9.8798179213        9.0373831292  MEMB      18              0.0000000000
      2264        18  DOPC      H4X            19.2799076696       -9.4227614376        9.7017549277  MEMB      18              0.0000000000
      2265        18  DOPC      H4Y            17.5619113419       -9.3294700387        9.1848521949  MEMB      18              0.0000000000
      2266        18  DOPC      C35            18.9372544275       -9.6530418278        7.5500750297  MEMB      18              0.0000000000
      2267        18  DOPC      H5X            18.4861614858       -8.6829764844        7.2503933479  MEMB      18              0.0000000000
      2268        18  DOPC      H5Y            18.3312742425      -10.2840626625        6.8652965198  MEMB      18              0.0000000000
      2269        18  DOPC      C36            20.4231654129       -9.8031069497        7.2072599563  MEMB      18              0.0000000000
      2270        18  DOPC      H6X            20.9183306819       -8.8702320673        7.5520442611  MEMB      18              0.0000000000
      2271        18  DOPC      H6Y            20.8434615040      -10.7499649142        7.6086726869  MEMB      18              0.0000000000
      2272        18  DOPC      C37            20.6189676538       -9.8454177762        5.6266887504  MEMB      18              0.0000000000
      2273        18  DOPC      H7X            21.6891832230       -9.7738141452        5.3371505768  MEMB      18              0.0000000000
      2274        18  DOPC      H7Y            20.2452514402      -10.8017894246        5.2024122003  MEMB      18              0.0000000000
      2275        18  DOPC      C38            19.8427709070       -8.6560496140        4.9377992339  MEMB      18              0.0000000000
      2276        18  DOPC      H8X            20.2051491594       -7.7154228423        5.4049436482  MEMB      18              0.0000000000
      2277        18  DOPC      H8Y            18.7713925427       -8.8445765177        5.1634677699  MEMB      18              0.0000000000
      2278        18  DOPC      C39            20.2192757222       -8.5963158586        3.4739737535  MEMB      18              0.0000000000
      2279        18  DOPC      H9X            21.3043303067       -8.5938211847        3.2932790172  MEMB      18              0.0000000000
      2280        18  DOPC      C310           19.3004286880       -8.5858239464        2.4404175090  MEMB      18              0.0000000000
      2281        18  DOPC      H10X           19.6859321791       -8.5216116450        1.4121837046  MEMB      18              0.0000000000
      2282        18  DOPC      C311           17.8415433970       -8.6089865688        2.5890239027  MEMB      18              0.0000000000
      2283        18  DOPC      H11X           17.4747746107       -8.2441629558        3.5722349612  MEMB      18              0.0000000000
      2284        18  DOPC      H11Y           17.5712047990       -9.6813304083        2.6954045644  MEMB      18              0.0000000000
      2285        18  DOPC      C312           16.9698890899       -7.9245428441        1.5269531612  MEMB      18              0.0000000000
      2286        18  DOPC      H12X           17.1461816250       -8.5527159617        0.6277086104  MEMB      18              0.0000000000
      2287        18  DOPC      H12Y           17.1796939678       -6.8366145948        1.4450054654  MEMB      18              0.0000000000
      2288        18  DOPC      C313           15.4653738147       -8.0301439783        1.7491995253  MEMB      18              0.0000000000
      2289        18  DOPC      H13X           15.2866631337       -7.6108967195        2.7624202260  MEMB      18              0.0000000000
      2290        18  DOPC      H13Y           15.0526141912       -7.3651021118        0.9607404879  MEMB      18              0.0000000000
      2291        18  DOPC      C314           14.9393401574       -9.3998169892        1.6413360646  MEMB      18              0.0000000000
      2292        18  DOPC      H14X           15.5159007341       -9.8280038143        0.7936600411  MEMB      18              0.0000000000
      2293        18  DOPC      H14Y           15.1265772259       -9.9972855433        2.5591027495  MEMB      18              0.0000000000
      2294        18  DOPC      C315           13.4050821007       -9.3233747037        1.3005847877  MEMB      18              0.0000000000
      2295        18  DOPC      H15X           13.0948843580       -8.5445513652        0.5715223330  MEMB      18              0.0000000000
      2296        18  DOPC      H15Y           12.8625225958       -8.8940863819        2.1698732990  MEMB      18              0.0000000000
      2297        18  DOPC      C316           12.7082860881      -10.5878677040        0.8294326735  MEMB      18              0.0000000000
      2298        18  DOPC      H16X           11.6142024828      -10.4865079813        0.9938312761  MEMB      18              0.0000000000
      2299        18  DOPC      H16Y           12.8085943396      -10.7566922451       -0.2640733841  MEMB      18              0.0000000000
      2300        18  DOPC      C317           13.2326969445      -11.9208605964        1.4559548485  MEMB      18              0.0000000000
      2301        18  DOPC      H17X           14.3361531305      -12.0469062526        1.4273590511  MEMB      18              0.0000000000
      2302        18  DOPC      H17Y           12.9619613795      -11.9473616216        2.5331364808  MEMB      18              0.0000000000
      2303        18  DOPC      C318           12.5703065069      -13.0952651817        0.7334073334  MEMB      18              0.0000000000
      2304        18  DOPC      H18X           12.9426245062      -14.0596437100        1.1404384499  MEMB      18              0.0000000000
      2305        18  DOPC      H18Y           11.4743578758      -13.0965960112        0.9156603579  MEMB      18              0.0000000000
      2306        18  DOPC      H18Z           12.8718481302      -12.9886408895       -0.3305589316  MEMB      18              0.0000000000
      2307        19  23SM      N               2.8904971383      -18.6674532593       27.6432512117  MEMB      19              0.0000000000
      2308        19  23SM      C15             3.6243742048      -17.7005294030       26.8583647955  MEMB      19              0.0000000000
      2309        19  23SM      H15A            4.3371958980      -18.2422909867       26.2543948478  MEMB      19              0.0000000000
      2310        19  23SM      H15B            4.1954500968      -17.0174421547       27.4696455869  MEMB      19              0.0000000000
      2311        19  23SM      H15C            2.9066129956      -17.1498793509       26.2684467650  MEMB      19              0.0000000000
      2312        19  23SM      C14             3.8530067915      -19.2619974624       28.6619938624  MEMB      19              0.0000000000
      2313        19  23SM      H14A            4.5886490641      -19.8496857529       28.1329823180  MEMB      19              0.0000000000
      2314        19  23SM      H14B            3.4592217015      -19.9621313590       29.3838981442  MEMB      19              0.0000000000
      2315        19  23SM      H14C            4.3794693206      -18.5067758181       29.2266860702  MEMB      19              0.0000000000
      2316        19  23SM      C13             1.8136329566      -17.9001335471       28.3554432002  MEMB      19              0.0000000000
      2317        19  23SM      H13A            1.3681815192      -17.2702710573       27.5996349207  MEMB      19              0.0000000000
      2318        19  23SM      H13B            2.2267488902      -17.2588948915       29.1200008158  MEMB      19              0.0000000000
      2319        19  23SM      H13C            1.0410547782      -18.5548744675       28.7307262000  MEMB      19              0.0000000000
      2320        19  23SM      C12             2.2780352076      -19.7566135410       26.7337532796  MEMB      19              0.0000000000
      2321        19  23SM      H12A            1.4281629873      -20.1915613165       27.2386666584  MEMB      19              0.0000000000
      2322        19  23SM      H12B            3.0376411836      -20.5196684674       26.6492204656  MEMB      19              0.0000000000
      2323        19  23SM      C11             1.7464390232      -19.2847272758       25.2940144904  MEMB      19              0.0000000000
      2324        19  23SM      H11A            1.7266333007      -20.2071663795       24.6751163668  MEMB      19              0.0000000000
      2325        19  23SM      H11B            2.5025011812      -18.5653063736       24.9130623775  MEMB      19              0.0000000000
      2326        19  23SM      P              -0.1694068276      -17.6227178429       24.5056017492  MEMB      19              0.0000000000
      2327        19  23SM      O13            -1.3859607144      -18.1662353886       23.8164031127  MEMB      19              0.0000000000
      2328        19  23SM      O14            -0.3260551901      -16.4022067492       25.3365055889  MEMB      19              0.0000000000
      2329        19  23SM      O11             0.8186525532      -17.2775366749       23.4220723015  MEMB      19              0.0000000000
      2330        19  23SM      O12             0.4455478227      -18.7469837543       25.3725964131  MEMB      19              0.0000000000
      2331        19  23SM      C1S             1.1461173248      -18.1531475689       22.3389936904  MEMB      19              0.0000000000
      2332        19  23SM      H1S             0.2401350375      -18.7049388712       22.0087763306  MEMB      19              0.0000000000
      2333        19  23SM      H1T             2.0238196698      -18.7649410480       22.6384403992  MEMB      19              0.0000000000
      2334        19  23SM      NF              0.2757542417      -17.1057446778       20.1640676536  MEMB      19              0.0000000000
      2335        19  23SM      HNF             0.4379233987      -17.5865234102       19.3058357710  MEMB      19              0.0000000000
      2336        19  23SM      C2S             1.4048564434      -17.1861141473       21.0914504530  MEMB      19              0.0000000000
      2337        19  23SM      H2S             1.6097728547      -16.1626734376       21.4721069864  MEMB      19              0.0000000000
      2338        19  23SM      C3S             2.5555422863      -17.5991550356       20.2248273969  MEMB      19              0.0000000000
      2339        19  23SM      H3S             2.3947048787      -18.6634291106       19.9495584345  MEMB      19              0.0000000000
      2340        19  23SM      O3              3.7750700923      -17.5696272423       20.9635605561  MEMB      19              0.0000000000
      2341        19  23SM      HO3             3.6079654799      -17.1962539023       21.8320468639  MEMB      19              0.0000000000
      2342        19  23SM      C4S             2.6858966241      -16.7298234883       18.9676453952  MEMB      19              0.0000000000
      2343        19  23SM      H4S             2.4866833953      -15.6492732109       19.0198479680  MEMB      19              0.0000000000
      2344        19  23SM      C5S             3.0833291179      -17.2525670825       17.7593441459  MEMB      19              0.0000000000
      2345        19  23SM      H5S             3.2479200230      -18.3321449056       17.6273533680  MEMB      19              0.0000000000
      2346        19  23SM      C6S             3.2713488341      -16.4913646658       16.4443134992  MEMB      19              0.0000000000
      2347        19  23SM      H6S             4.3575552663      -16.2615412204       16.4035971879  MEMB      19              0.0000000000
      2348        19  23SM      H6T             2.6999180825      -15.5565198180       16.6283046043  MEMB      19              0.0000000000
      2349        19  23SM      C7S             2.6843930824      -17.3414695876       15.3233828473  MEMB      19              0.0000000000
      2350        19  23SM      H7S             1.6645647663      -17.6502930678       15.6378659180  MEMB      19              0.0000000000
      2351        19  23SM      H7T             3.4319634151      -18.1516713213       15.1854242572  MEMB      19              0.0000000000
      2352        19  23SM      C8S             2.6838942725      -16.5509661362       14.0281007543  MEMB      19              0.0000000000
      2353        19  23SM      H8S             3.7669564706      -16.4360065251       13.8088252679  MEMB      19              0.0000000000
      2354        19  23SM      H8T             2.1235317690      -15.6129398921       14.2291523585  MEMB      19              0.0000000000
      2355        19  23SM      C9S             2.0506577253      -17.2377749039       12.8083267738  MEMB      19              0.0000000000
      2356        19  23SM      H9S             1.0282131607      -17.6222262975       13.0111193970  MEMB      19              0.0000000000
      2357        19  23SM      H9T             2.6954978617      -18.1232097338       12.6225644187  MEMB      19              0.0000000000
      2358        19  23SM      C10S            1.9011893300      -16.4172716194       11.5895913773  MEMB      19              0.0000000000
      2359        19  23SM      H10S            2.8720930813      -15.9350045028       11.3465162228  MEMB      19              0.0000000000
      2360        19  23SM      H10T            1.2533421716      -15.5585969954       11.8676081836  MEMB      19              0.0000000000
      2361        19  23SM      C11S            1.3746194434      -17.0998729828       10.3554166703  MEMB      19              0.0000000000
      2362        19  23SM      H11S            0.3462352641      -17.4740862761       10.5470187916  MEMB      19              0.0000000000
      2363        19  23SM      H11T            1.9574452106      -18.0221079574       10.1453746302  MEMB      19              0.0000000000
      2364        19  23SM      C12S            1.3787297996      -16.1933778007        9.1008344464  MEMB      19              0.0000000000
      2365        19  23SM      H12S            2.4262753582      -15.9482561122        8.8235535675  MEMB      19              0.0000000000
      2366        19  23SM      H12T            1.0375192911      -15.1834856551        9.4139055063  MEMB      19              0.0000000000
      2367        19  23SM      C13S            0.5403669105      -16.8008457574        7.9525511258  MEMB      19              0.0000000000
      2368        19  23SM      H13S           -0.5103290935      -16.8972328284        8.3005001665  MEMB      19              0.0000000000
      2369        19  23SM      H13T            0.7426887819      -17.8502756010        7.6490977717  MEMB      19              0.0000000000
      2370        19  23SM      C14S            0.7504514463      -16.0642485982        6.5637936297  MEMB      19              0.0000000000
      2371        19  23SM      H14S            1.8112827779      -15.7465627429        6.4741651906  MEMB      19              0.0000000000
      2372        19  23SM      H14T            0.1684954065      -15.1185330450        6.5281566305  MEMB      19              0.0000000000
      2373        19  23SM      C15S            0.5601624727      -16.8110910538        5.2912409719  MEMB      19              0.0000000000
      2374        19  23SM      H15S           -0.4865570949      -17.1471263696        5.1306805469  MEMB      19              0.0000000000
      2375        19  23SM      H15T            1.1654003750      -17.7240868486        5.4768400028  MEMB      19              0.0000000000
      2376        19  23SM      C16S            0.8896567046      -15.9514471275        4.1141926139  MEMB      19              0.0000000000
      2377        19  23SM      H16S            0.7200343797      -16.6085194133        3.2345318289  MEMB      19              0.0000000000
      2378        19  23SM      H16T            1.9675170222      -15.7171227586        3.9814144957  MEMB      19              0.0000000000
      2379        19  23SM      C17S            0.1253579541      -14.6607931198        3.9190311762  MEMB      19              0.0000000000
      2380        19  23SM      H17S            0.5662612157      -13.8817802141        4.5771083469  MEMB      19              0.0000000000
      2381        19  23SM      H17T           -0.9271952190      -14.8465447444        4.2222634189  MEMB      19              0.0000000000
      2382        19  23SM      C18S            0.0522120348      -14.0978447052        2.4899042230  MEMB      19              0.0000000000
      2383        19  23SM      H18S           -0.3966672520      -14.8987326287        1.8642795282  MEMB      19              0.0000000000
      2384        19  23SM      H18T            1.1175908555      -13.9911632284        2.1934102264  MEMB      19              0.0000000000
      2385        19  23SM      H18U           -0.6766808456      -13.2595028657        2.5047121628  MEMB      19              0.0000000000
      2386        19  23SM      C1F            -0.8348791441      -16.3952285012       20.4852212598  MEMB      19              0.0000000000
      2387        19  23SM      OF             -0.9161027651      -15.6319429218       21.4287712439  MEMB      19              0.0000000000
      2388        19  23SM      C2F            -2.0011864704      -16.6192714980       19.5663266680  MEMB      19              0.0000000000
      2389        19  23SM      H2F            -2.7842929753      -17.1362501268       20.1611365083  MEMB      19              0.0000000000
      2390        19  23SM      H2G            -1.6979864363      -17.2942554226       18.7376006523  MEMB      19              0.0000000000
      2391        19  23SM      C3F            -2.5124380543      -15.2761454713       19.0572201150  MEMB      19              0.0000000000
      2392        19  23SM      H3F            -2.8848306203      -14.5984813958       19.8549770773  MEMB      19              0.0000000000
      2393        19  23SM      H3G            -3.4029043402      -15.3968484974       18.4039041617  MEMB      19              0.0000000000
      2394        19  23SM      C4F            -1.4677536324      -14.5098766205       18.1726089194  MEMB      19              0.0000000000
      2395        19  23SM      H4F            -0.6741354333      -14.0729561466       18.8157201268  MEMB      19              0.0000000000
      2396        19  23SM      H4G            -1.9107083904      -13.5824828430       17.7506453687  MEMB      19              0.0000000000
      2397        19  23SM      C5F            -0.8381786096      -15.2946832342       16.9880764112  MEMB      19              0.0000000000
      2398        19  23SM      H5F            -0.2635133671      -16.1016379503       17.4909726370  MEMB      19              0.0000000000
      2399        19  23SM      H5G            -0.1259833130      -14.5931570315       16.5033506966  MEMB      19              0.0000000000
      2400        19  23SM      C6F            -1.8107605207      -15.9096073509       15.9779978228  MEMB      19              0.0000000000
      2401        19  23SM      H6F            -2.1780441339      -15.1691209049       15.2356344935  MEMB      19              0.0000000000
      2402        19  23SM      H6G            -2.5735038157      -16.5399863492       16.4831378568  MEMB      19              0.0000000000
      2403        19  23SM      C7F            -1.0818112845      -16.9232763187       15.0628103174  MEMB      19              0.0000000000
      2404        19  23SM      H7F            -0.4494682465      -17.5505144976       15.7269151737  MEMB      19              0.0000000000
      2405        19  23SM      H7G            -0.3659384676      -16.3736716408       14.4149044103  MEMB      19              0.0000000000
      2406        19  23SM      C8F            -2.0848560549      -17.6470927974       14.0947235831  MEMB      19              0.0000000000
      2407        19  23SM      H8F            -2.8683398474      -17.0013023468       13.6436924674  MEMB      19              0.0000000000
      2408        19  23SM      H8G            -2.7011541786      -18.2920064051       14.7569800101  MEMB      19              0.0000000000
      2409        19  23SM      C9F            -1.6161288091      -18.6578184133       13.0100840247  MEMB      19              0.0000000000
      2410        19  23SM      H9F            -0.9583501804      -19.4415662897       13.4429672529  MEMB      19              0.0000000000
      2411        19  23SM      H9G            -0.9178521426      -18.0736628001       12.3733012314  MEMB      19              0.0000000000
      2412        19  23SM      C10F           -2.8809468742      -19.1489344288       12.2866240640  MEMB      19              0.0000000000
      2413        19  23SM      H10F           -3.3010939501      -18.2427940752       11.8000986022  MEMB      19              0.0000000000
      2414        19  23SM      H10G           -3.5371539840      -19.5424646082       13.0921343437  MEMB      19              0.0000000000
      2415        19  23SM      C11F           -2.5573776254      -20.1646286094       11.2326445958  MEMB      19              0.0000000000
      2416        19  23SM      H11F           -3.5080529314      -20.4797575409       10.7517791913  MEMB      19              0.0000000000
      2417        19  23SM      H11G           -1.9449623910      -20.9334640210       11.7504866483  MEMB      19              0.0000000000
      2418        19  23SM      C12F           -1.5920404591      -19.6060801975       10.1728622674  MEMB      19              0.0000000000
      2419        19  23SM      H12F           -0.5760744074      -19.4553643492       10.5964402279  MEMB      19              0.0000000000
      2420        19  23SM      H12G           -2.0509321008      -18.6927249195        9.7375215865  MEMB      19              0.0000000000
      2421        19  23SM      C13F           -1.2985766473      -20.6028061868        9.0135695550  MEMB      19              0.0000000000
      2422        19  23SM      H13F           -1.2877323621      -20.0009751308        8.0797578222  MEMB      19              0.0000000000
      2423        19  23SM      H13G           -2.2266038599      -21.1832690124        8.8234414444  MEMB      19              0.0000000000
      2424        19  23SM      C14F           -0.1042684371      -21.6150166215        9.1720550248  MEMB      19              0.0000000000
      2425        19  23SM      H14F           -0.3452094042      -22.4699880058        9.8393576241  MEMB      19              0.0000000000
      2426        19  23SM      H14G            0.8483408386      -21.1530499182        9.5088691216  MEMB      19              0.0000000000
      2427        19  23SM      C15F            0.3930163833      -22.3766820698        7.9288122780  MEMB      19              0.0000000000
      2428        19  23SM      H15F           -0.3130204844      -23.1001797320        7.4679606117  MEMB      19              0.0000000000
      2429        19  23SM      H15G            1.2883051943      -22.8881699147        8.3425261954  MEMB      19              0.0000000000
      2430        19  23SM      C16F            0.9775943293      -21.4413830638        6.7839572219  MEMB      19              0.0000000000
      2431        19  23SM      H16F            0.1881906806      -20.7949467304        6.3443179038  MEMB      19              0.0000000000
      2432        19  23SM      H16G            1.3660831021      -22.1045577795        5.9817116918  MEMB      19              0.0000000000
      2433        19  23SM      C17F            2.1472571578      -20.4698843258        7.2318613319  MEMB      19              0.0000000000
      2434        19  23SM      H17F            2.8020631947      -21.1274497407        7.8427275902  MEMB      19              0.0000000000
      2435        19  23SM      H17G            1.7449328769      -19.7026961482        7.9274741369  MEMB      19              0.0000000000
      2436        19  23SM      C18F            3.1887366928      -19.8653409210        6.1960821256  MEMB      19              0.0000000000
      2437        19  23SM      H18F            3.9145979033      -19.1437964376        6.6283088168  MEMB      19              0.0000000000
      2438        19  23SM      H18G            2.6918981848      -19.2038394283        5.4545363536  MEMB      19              0.0000000000
      2439        19  23SM      C19F            4.0140895254      -20.9825591923        5.5197369951  MEMB      19              0.0000000000
      2440        19  23SM      H19F            3.3455729244      -21.5935355834        4.8762200358  MEMB      19              0.0000000000
      2441        19  23SM      H19G            4.5302136037      -21.5950268825        6.2896844004  MEMB      19              0.0000000000
      2442        19  23SM      C20F            5.1620658320      -20.4007278620        4.7043052184  MEMB      19              0.0000000000
      2443        19  23SM      H20F            5.7709089447      -21.2398854028        4.3049981060  MEMB      19              0.0000000000
      2444        19  23SM      H20G            5.9038703893      -19.9960568996        5.4256150249  MEMB      19              0.0000000000
      2445        19  23SM      C21F            4.7032043183      -19.4550111659        3.5093407584  MEMB      19              0.0000000000
      2446        19  23SM      H21F            5.5927496284      -19.1240352360        2.9318598114  MEMB      19              0.0000000000
      2447        19  23SM      H21G            4.2882625630      -18.5412196403        3.9859211573  MEMB      19              0.0000000000
      2448        19  23SM      C22F            3.6996017547      -20.0986571813        2.5179473331  MEMB      19              0.0000000000
      2449        19  23SM      H22F            3.3741420619      -19.4448056653        1.6807638743  MEMB      19              0.0000000000
      2450        19  23SM      H22G            2.8409493767      -20.2867930322        3.1973892546  MEMB      19              0.0000000000
      2451        19  23SM      C23F            4.1210525256      -21.4456309144        1.9770140029  MEMB      19              0.0000000000
      2452        19  23SM      H23F            3.2900389317      -21.8837962358        1.3839300379  MEMB      19              0.0000000000
      2453        19  23SM      H23G            4.2370447976      -22.2190060382        2.7661633893  MEMB      19              0.0000000000
      2454        19  23SM      H23H            5.0248932936      -21.4386966461        1.3309922321  MEMB      19              0.0000000000
      2455        20  DOPE      N             -21.9367437310        4.1647774781       17.5693275623  MEMB      20              0.0000000000
      2456        20  DOPE      HN1           -22.5956065723        3.3621461257       17.6266217147  MEMB      20              0.0000000000
      2457        20  DOPE      HN2           -22.4835705608        5.0449422642       17.6581552308  MEMB      20              0.0000000000
      2458        20  DOPE      HN3           -21.4866253342        4.1598397199       16.6317938965  MEMB      20              0.0000000000
      2459        20  DOPE      C12           -20.9388362330        3.9402541736       18.6771268563  MEMB      20              0.0000000000
      2460        20  DOPE      H12A          -21.6940942948        3.7807702990       19.4761708003  MEMB      20              0.0000000000
      2461        20  DOPE      H12B          -20.3661763466        4.8839223902       18.8031109047  MEMB      20              0.0000000000
      2462        20  DOPE      C11           -20.0882342597        2.6320833691       18.3224056824  MEMB      20              0.0000000000
      2463        20  DOPE      H11A          -19.6664755786        2.6691209949       17.2952402901  MEMB      20              0.0000000000
      2464        20  DOPE      H11B          -20.7442925002        1.7378446136       18.2572468877  MEMB      20              0.0000000000
      2465        20  DOPE      P             -17.8207379678        3.2584902603       19.5711030331  MEMB      20              0.0000000000
      2466        20  DOPE      O13           -16.6807701705        2.3329780312       19.3332010489  MEMB      20              0.0000000000
      2467        20  DOPE      O14           -17.9409249537        3.9953821467       20.8848912891  MEMB      20              0.0000000000
      2468        20  DOPE      O11           -17.9478756381        4.2289550450       18.2938729854  MEMB      20              0.0000000000
      2469        20  DOPE      O12           -19.1491570900        2.3630117090       19.3480715414  MEMB      20              0.0000000000
      2470        20  DOPE      C1            -16.8031644219        5.0372021359       17.9837609596  MEMB      20              0.0000000000
      2471        20  DOPE      HA            -15.8625890546        4.5270383155       18.2827126166  MEMB      20              0.0000000000
      2472        20  DOPE      HB            -17.0038219239        6.0452112203       18.4056319027  MEMB      20              0.0000000000
      2473        20  DOPE      C2            -16.7924796032        5.4714288679       16.4818825159  MEMB      20              0.0000000000
      2474        20  DOPE      HS            -15.9377010181        6.1755817599       16.3933198166  MEMB      20              0.0000000000
      2475        20  DOPE      O21           -18.0685504290        6.1238901162       16.1369145056  MEMB      20              0.0000000000
      2476        20  DOPE      C21           -18.1513219434        6.9758832704       15.1022577991  MEMB      20              0.0000000000
      2477        20  DOPE      O22           -17.2748067838        7.2351440124       14.2885308558  MEMB      20              0.0000000000
      2478        20  DOPE      C22           -19.5165957120        7.6351878658       15.1148892341  MEMB      20              0.0000000000
      2479        20  DOPE      H2R           -19.4843449008        8.4270691275       14.3362974646  MEMB      20              0.0000000000
      2480        20  DOPE      H2S           -19.7730671540        8.0745989630       16.1025436066  MEMB      20              0.0000000000
      2481        20  DOPE      C3            -16.4989976193        4.2552580637       15.5680432282  MEMB      20              0.0000000000
      2482        20  DOPE      HX            -15.6574194707        3.7039070503       16.0392961319  MEMB      20              0.0000000000
      2483        20  DOPE      HY            -16.2690455931        4.7193882858       14.5851770297  MEMB      20              0.0000000000
      2484        20  DOPE      O31           -17.6456785866        3.4475067409       15.5268130270  MEMB      20              0.0000000000
      2485        20  DOPE      C31           -17.5787936322        2.6048389081       14.4716148640  MEMB      20              0.0000000000
      2486        20  DOPE      O32           -16.5928044007        2.4682213699       13.7770546244  MEMB      20              0.0000000000
      2487        20  DOPE      C32           -18.8526972823        1.7898161390       14.3152623555  MEMB      20              0.0000000000
      2488        20  DOPE      H2X           -18.8881186731        1.0671266831       15.1583436804  MEMB      20              0.0000000000
      2489        20  DOPE      H2Y           -19.7054972560        2.4886311548       14.4520496491  MEMB      20              0.0000000000
      2490        20  DOPE      C23           -20.5867302196        6.6139750764       14.5978318697  MEMB      20              0.0000000000
      2491        20  DOPE      H3R           -20.6535216955        5.8068741858       15.3583895314  MEMB      20              0.0000000000
      2492        20  DOPE      H3S           -20.2617633234        6.0458981258       13.7000533253  MEMB      20              0.0000000000
      2493        20  DOPE      C24           -21.9764930096        7.2856483012       14.2968441288  MEMB      20              0.0000000000
      2494        20  DOPE      H4R           -22.0044151625        8.0873266896       13.5281746359  MEMB      20              0.0000000000
      2495        20  DOPE      H4S           -22.3032103723        7.7611747323       15.2462921997  MEMB      20              0.0000000000
      2496        20  DOPE      C25           -22.9661228064        6.1415809891       13.8915603567  MEMB      20              0.0000000000
      2497        20  DOPE      H5R           -23.9382708298        6.6757463261       13.9541445985  MEMB      20              0.0000000000
      2498        20  DOPE      H5S           -23.1293381331        5.4468502362       14.7430479855  MEMB      20              0.0000000000
      2499        20  DOPE      C26           -22.9915263197        5.4384164579       12.5488591658  MEMB      20              0.0000000000
      2500        20  DOPE      H6R           -23.7793132818        4.6627578732       12.6587057155  MEMB      20              0.0000000000
      2501        20  DOPE      H6S           -22.0380440493        4.8942817808       12.3782422619  MEMB      20              0.0000000000
      2502        20  DOPE      C27           -23.2937691627        6.4291489837       11.4247629468  MEMB      20              0.0000000000
      2503        20  DOPE      H7R           -22.3823849361        7.0638666496       11.3959008916  MEMB      20              0.0000000000
      2504        20  DOPE      H7S           -24.2252318489        6.9819939821       11.6718687601  MEMB      20              0.0000000000
      2505        20  DOPE      C28           -23.3373954396        5.9751982444        9.9711332668  MEMB      20              0.0000000000
      2506        20  DOPE      H8R           -22.3232814477        5.6634271413        9.6414485809  MEMB      20              0.0000000000
      2507        20  DOPE      H8S           -23.5106650482        6.8966595046        9.3751396855  MEMB      20              0.0000000000
      2508        20  DOPE      C29           -24.3870087012        4.9020174446        9.8018300714  MEMB      20              0.0000000000
      2509        20  DOPE      H9R           -25.4450613290        5.1738054532        9.9308902908  MEMB      20              0.0000000000
      2510        20  DOPE      C210          -24.2519797589        3.5235722595        9.6810210467  MEMB      20              0.0000000000
      2511        20  DOPE      H10R          -25.0977210259        2.8822945013        9.3920847331  MEMB      20              0.0000000000
      2512        20  DOPE      C211          -22.8454060439        2.9787188425        9.7097709539  MEMB      20              0.0000000000
      2513        20  DOPE      H11R          -22.9818904333        1.8970276904        9.9233995705  MEMB      20              0.0000000000
      2514        20  DOPE      H11S          -22.2531243261        3.3863728113       10.5567315980  MEMB      20              0.0000000000
      2515        20  DOPE      C212          -21.8387968490        2.9594399155        8.4777155070  MEMB      20              0.0000000000
      2516        20  DOPE      H12R          -20.8996741170        2.4113271420        8.7056229611  MEMB      20              0.0000000000
      2517        20  DOPE      H12S          -21.5455429297        3.9968524033        8.2092035078  MEMB      20              0.0000000000
      2518        20  DOPE      C213          -22.5455079907        2.3640327837        7.2718989250  MEMB      20              0.0000000000
      2519        20  DOPE      H13R          -23.1587566606        3.1628858445        6.8027717306  MEMB      20              0.0000000000
      2520        20  DOPE      H13S          -23.3293530281        1.6068595758        7.4877611734  MEMB      20              0.0000000000
      2521        20  DOPE      C214          -21.4233994452        1.8817649820        6.3422002299  MEMB      20              0.0000000000
      2522        20  DOPE      H14R          -20.9617082884        1.0044954877        6.8437582945  MEMB      20              0.0000000000
      2523        20  DOPE      H14S          -20.6955058715        2.6358173380        5.9735577642  MEMB      20              0.0000000000
      2524        20  DOPE      C215          -22.0049708849        1.2214379531        5.0653171843  MEMB      20              0.0000000000
      2525        20  DOPE      H15R          -22.8282956465        0.5351593829        5.3576850740  MEMB      20              0.0000000000
      2526        20  DOPE      H15S          -21.3727612803        0.4037314033        4.6579004717  MEMB      20              0.0000000000
      2527        20  DOPE      C216          -22.8096481962        2.0632307384        4.0475429345  MEMB      20              0.0000000000
      2528        20  DOPE      H16R          -23.7878510701        2.4101304536        4.4439016951  MEMB      20              0.0000000000
      2529        20  DOPE      H16S          -23.0042175201        1.6109375976        3.0516040231  MEMB      20              0.0000000000
      2530        20  DOPE      C217          -22.0550217355        3.3710889363        3.6449865751  MEMB      20              0.0000000000
      2531        20  DOPE      H17R          -21.6379861191        3.9589918023        4.4904286030  MEMB      20              0.0000000000
      2532        20  DOPE      H17S          -22.8520895648        3.9248531798        3.1042919483  MEMB      20              0.0000000000
      2533        20  DOPE      C218          -20.9127967527        3.2191066054        2.6717567169  MEMB      20              0.0000000000
      2534        20  DOPE      H18R          -20.3324455018        4.1656530978        2.6322192160  MEMB      20              0.0000000000
      2535        20  DOPE      H18S          -21.3077251299        2.9654188229        1.6647841773  MEMB      20              0.0000000000
      2536        20  DOPE      H18T          -20.1994149751        2.4256176259        2.9812448533  MEMB      20              0.0000000000
      2537        20  DOPE      C33           -19.0666023506        1.0312959962       13.0129767764  MEMB      20              0.0000000000
      2538        20  DOPE      H3X           -19.7112337200        0.1601752399       13.2577617606  MEMB      20              0.0000000000
      2539        20  DOPE      H3Y           -18.1509205681        0.5717149351       12.5832872673  MEMB      20              0.0000000000
      2540        20  DOPE      C34           -19.7742190211        1.9047298498       11.8915933188  MEMB      20              0.0000000000
      2541        20  DOPE      H4X           -19.9800525418        1.2774952358       10.9979879042  MEMB      20              0.0000000000
      2542        20  DOPE      H4Y           -20.7379822053        2.1652101169       12.3790678771  MEMB      20              0.0000000000
      2543        20  DOPE      C35           -19.0116796985        3.2746916885       11.5064886102  MEMB      20              0.0000000000
      2544        20  DOPE      H5X           -19.0353540705        3.8781712706       12.4389975880  MEMB      20              0.0000000000
      2545        20  DOPE      H5Y           -19.7047126203        3.8064198666       10.8199819466  MEMB      20              0.0000000000
      2546        20  DOPE      C36           -17.6708400510        3.0634726061       10.8011995819  MEMB      20              0.0000000000
      2547        20  DOPE      H6X           -16.7702576253        2.9086730372       11.4331094019  MEMB      20              0.0000000000
      2548        20  DOPE      H6Y           -17.4782305325        3.9774215000       10.1996014926  MEMB      20              0.0000000000
      2549        20  DOPE      C37           -17.6105738174        2.0009671052        9.6356257694  MEMB      20              0.0000000000
      2550        20  DOPE      H7X           -17.9589726583        1.0246542039       10.0353159921  MEMB      20              0.0000000000
      2551        20  DOPE      H7Y           -18.4260628154        2.1351084963        8.8931272254  MEMB      20              0.0000000000
      2552        20  DOPE      C38           -16.2080048519        1.6394949600        8.9242493557  MEMB      20              0.0000000000
      2553        20  DOPE      H8X           -16.4161924344        0.8100608342        8.2150118252  MEMB      20              0.0000000000
      2554        20  DOPE      H8Y           -15.5176643874        1.2448029819        9.7001165238  MEMB      20              0.0000000000
      2555        20  DOPE      C39           -15.6202222286        2.7585932614        8.1507727947  MEMB      20              0.0000000000
      2556        20  DOPE      H9X           -15.5837275806        3.6668580535        8.7702270899  MEMB      20              0.0000000000
      2557        20  DOPE      C310          -15.2857670127        2.7368705559        6.8677698415  MEMB      20              0.0000000000
      2558        20  DOPE      H10X          -14.7842321179        3.5380084219        6.3050618072  MEMB      20              0.0000000000
      2559        20  DOPE      C311          -15.3924868114        1.6581132441        5.9138217308  MEMB      20              0.0000000000
      2560        20  DOPE      H11X          -14.7510068435        1.8879072148        5.0363136854  MEMB      20              0.0000000000
      2561        20  DOPE      H11Y          -15.0291113771        0.7095624104        6.3638548889  MEMB      20              0.0000000000
      2562        20  DOPE      C312          -16.8114056918        1.4910951571        5.3191272058  MEMB      20              0.0000000000
      2563        20  DOPE      H12X          -17.6334089923        1.4173846154        6.0629001137  MEMB      20              0.0000000000
      2564        20  DOPE      H12Y          -16.8004427621        0.5423309574        4.7411589348  MEMB      20              0.0000000000
      2565        20  DOPE      C313          -17.2670131168        2.5767677728        4.2775281301  MEMB      20              0.0000000000
      2566        20  DOPE      H13X          -18.3679199778        2.4838893468        4.1604865705  MEMB      20              0.0000000000
      2567        20  DOPE      H13Y          -17.0543059873        3.5843651070        4.6944506115  MEMB      20              0.0000000000
      2568        20  DOPE      C314          -16.5085839374        2.5178766405        2.9774900814  MEMB      20              0.0000000000
      2569        20  DOPE      H14X          -16.5778521446        1.5641896265        2.4118012897  MEMB      20              0.0000000000
      2570        20  DOPE      H14Y          -15.4786286145        2.7761428825        3.3043118971  MEMB      20              0.0000000000
      2571        20  DOPE      C315          -16.8841984668        3.5408892673        1.9335222858  MEMB      20              0.0000000000
      2572        20  DOPE      H15X          -16.8633326264        4.5271230272        2.4446278239  MEMB      20              0.0000000000
      2573        20  DOPE      H15Y          -17.9350843591        3.4225593362        1.5929965034  MEMB      20              0.0000000000
      2574        20  DOPE      C316          -15.9745606307        3.5937801633        0.7719778631  MEMB      20              0.0000000000
      2575        20  DOPE      H16X          -16.0998773036        2.6584794613        0.1856082771  MEMB      20              0.0000000000
      2576        20  DOPE      H16Y          -14.8895573336        3.6214546204        1.0093040632  MEMB      20              0.0000000000
      2577        20  DOPE      C317          -16.1554640541        4.7652582079       -0.2357415916  MEMB      20              0.0000000000
      2578        20  DOPE      H17X          -15.7711354233        5.6808060816        0.2626407400  MEMB      20              0.0000000000
      2579        20  DOPE      H17Y          -15.4751348143        4.5609623109       -1.0899867607  MEMB      20              0.0000000000
      2580        20  DOPE      C318          -17.5635918975        5.2249015756       -0.7091936764  MEMB      20              0.0000000000
      2581        20  DOPE      H18X          -18.2051354203        5.7071780750        0.0590209126  MEMB      20              0.0000000000
      2582        20  DOPE      H18Y          -17.3694216890        6.0307818479       -1.4489067035  MEMB      20              0.0000000000
      2583        20  DOPE      H18Z          -18.0166631055        4.3235000562       -1.1745131968  MEMB      20              0.0000000000
      2584        21  DOPC      N             -21.4118525237       -6.1677334230       20.2329382363  MEMB      21              0.0000000000
      2585        21  DOPC      C12           -20.8514811160       -4.8151433532       19.8202090909  MEMB      21              0.0000000000
      2586        21  DOPC      H12A          -21.1079916534       -4.0780823544       20.5667635157  MEMB      21              0.0000000000
      2587        21  DOPC      H12B          -21.3748014085       -4.4724311670       18.9398203676  MEMB      21              0.0000000000
      2588        21  DOPC      C13           -21.6406390161       -7.0410740758       19.0319087534  MEMB      21              0.0000000000
      2589        21  DOPC      H13A          -21.9948498768       -8.0379228399       19.2492273356  MEMB      21              0.0000000000
      2590        21  DOPC      H13B          -22.3896736814       -6.5510729970       18.4275527540  MEMB      21              0.0000000000
      2591        21  DOPC      H13C          -20.7358038260       -7.1864197727       18.4604651040  MEMB      21              0.0000000000
      2592        21  DOPC      C14           -22.7374979387       -5.9390497062       20.8497154942  MEMB      21              0.0000000000
      2593        21  DOPC      H14A          -23.3800603319       -5.4037975534       20.1663277394  MEMB      21              0.0000000000
      2594        21  DOPC      H14B          -23.2880349964       -6.8418066283       21.0695771727  MEMB      21              0.0000000000
      2595        21  DOPC      H14C          -22.5362075069       -5.1806511264       21.5918163017  MEMB      21              0.0000000000
      2596        21  DOPC      C15           -20.4647909895       -6.8476185858       21.1933452594  MEMB      21              0.0000000000
      2597        21  DOPC      H15A          -20.2998016278       -6.3072729341       22.1137828783  MEMB      21              0.0000000000
      2598        21  DOPC      H15B          -19.5546291895       -6.9462428586       20.6203891169  MEMB      21              0.0000000000
      2599        21  DOPC      H15C          -20.8608336627       -7.7939510582       21.5309916645  MEMB      21              0.0000000000
      2600        21  DOPC      C11           -19.3520738823       -4.7602472365       19.4657549244  MEMB      21              0.0000000000
      2601        21  DOPC      H11A          -19.0274438231       -3.7461691120       19.1486084643  MEMB      21              0.0000000000
      2602        21  DOPC      H11B          -18.8665657186       -5.0481403184       20.4226876904  MEMB      21              0.0000000000
      2603        21  DOPC      P             -17.6748111209       -5.5593929619       17.6621108286  MEMB      21              0.0000000000
      2604        21  DOPC      O13           -16.5120892827       -5.2886066743       18.6107371835  MEMB      21              0.0000000000
      2605        21  DOPC      O14           -17.8239244551       -4.6286597555       16.5735547131  MEMB      21              0.0000000000
      2606        21  DOPC      O12           -19.0325781772       -5.7576757243       18.4767649361  MEMB      21              0.0000000000
      2607        21  DOPC      O11           -17.5409868216       -7.0452003784       17.0829605832  MEMB      21              0.0000000000
      2608        21  DOPC      C1            -18.5024667513       -7.9530247369       16.8805979333  MEMB      21              0.0000000000
      2609        21  DOPC      HA            -19.3217266046       -7.3715581671       16.4062236466  MEMB      21              0.0000000000
      2610        21  DOPC      HB            -18.9048309533       -8.4740881796       17.7755375506  MEMB      21              0.0000000000
      2611        21  DOPC      C2            -18.1019724642       -9.0493879844       15.8889653306  MEMB      21              0.0000000000
      2612        21  DOPC      HS            -17.4498265153       -9.8272458325       16.3405887872  MEMB      21              0.0000000000
      2613        21  DOPC      O21           -17.3590340203       -8.4728491092       14.8389251209  MEMB      21              0.0000000000
      2614        21  DOPC      C21           -17.0306141229       -9.3105845038       13.9416488764  MEMB      21              0.0000000000
      2615        21  DOPC      O22           -16.8765595633      -10.5090739216       14.0725994730  MEMB      21              0.0000000000
      2616        21  DOPC      C22           -16.6807358395       -8.5474620403       12.6495058045  MEMB      21              0.0000000000
      2617        21  DOPC      H2R           -16.0886119347       -9.2876035327       12.0699356696  MEMB      21              0.0000000000
      2618        21  DOPC      H2S           -16.0721654857       -7.6181795573       12.6694410347  MEMB      21              0.0000000000
      2619        21  DOPC      C3            -19.4489483920       -9.7133407169       15.4345805124  MEMB      21              0.0000000000
      2620        21  DOPC      HX            -19.9541561729      -10.2161647760       16.2867861878  MEMB      21              0.0000000000
      2621        21  DOPC      HY            -19.1552172896      -10.5142440715       14.7228242486  MEMB      21              0.0000000000
      2622        21  DOPC      O31           -20.3348644664       -8.7392386347       14.7753936688  MEMB      21              0.0000000000
      2623        21  DOPC      C31           -21.5960532740       -9.0631996921       14.8332764917  MEMB      21              0.0000000000
      2624        21  DOPC      O32           -22.1883537746       -9.9952571723       15.3459445308  MEMB      21              0.0000000000
      2625        21  DOPC      C32           -22.4383320883       -7.8990946988       14.1831187725  MEMB      21              0.0000000000
      2626        21  DOPC      H2X           -23.4507386186       -7.8090995772       14.6317333762  MEMB      21              0.0000000000
      2627        21  DOPC      H2Y           -21.9782522741       -6.8881406161       14.2080069879  MEMB      21              0.0000000000
      2628        21  DOPC      C23           -17.9112163002       -7.9288704384       12.0530676003  MEMB      21              0.0000000000
      2629        21  DOPC      H3R           -18.2485338093       -7.1231945190       12.7396713097  MEMB      21              0.0000000000
      2630        21  DOPC      H3S           -18.6326292752       -8.7533648609       11.8684251018  MEMB      21              0.0000000000
      2631        21  DOPC      C24           -17.7331616146       -7.1575617525       10.7966026133  MEMB      21              0.0000000000
      2632        21  DOPC      H4R           -16.9466749009       -7.6870500049       10.2174628262  MEMB      21              0.0000000000
      2633        21  DOPC      H4S           -17.3421637558       -6.1467393775       11.0408961751  MEMB      21              0.0000000000
      2634        21  DOPC      C25           -18.8941080862       -7.0639236192        9.8661802030  MEMB      21              0.0000000000
      2635        21  DOPC      H5R           -18.7587019837       -6.2796056416        9.0910473636  MEMB      21              0.0000000000
      2636        21  DOPC      H5S           -19.7466768450       -6.6184694017       10.4220741907  MEMB      21              0.0000000000
      2637        21  DOPC      C26           -19.1543048290       -8.3065597934        9.1195987181  MEMB      21              0.0000000000
      2638        21  DOPC      H6R           -20.1723622419       -8.3020313195        8.6747840928  MEMB      21              0.0000000000
      2639        21  DOPC      H6S           -19.0353992549       -9.0940068286        9.8942661040  MEMB      21              0.0000000000
      2640        21  DOPC      C27           -18.2524466604       -8.7285420988        7.9476799473  MEMB      21              0.0000000000
      2641        21  DOPC      H7R           -18.7311845546       -9.5655062093        7.3957547561  MEMB      21              0.0000000000
      2642        21  DOPC      H7S           -17.3086979148       -9.1286457955        8.3761381184  MEMB      21              0.0000000000
      2643        21  DOPC      C28           -17.9248051362       -7.5245220254        6.9610944346  MEMB      21              0.0000000000
      2644        21  DOPC      H8R           -17.1905495682       -7.8801044495        6.2069387897  MEMB      21              0.0000000000
      2645        21  DOPC      H8S           -17.2972930765       -6.8690497212        7.6021139945  MEMB      21              0.0000000000
      2646        21  DOPC      C29           -18.9998701039       -6.7181138046        6.2448513354  MEMB      21              0.0000000000
      2647        21  DOPC      H9R           -19.4061902776       -5.8137071930        6.7212461863  MEMB      21              0.0000000000
      2648        21  DOPC      C210          -19.4697199617       -7.0381371720        4.9726541232  MEMB      21              0.0000000000
      2649        21  DOPC      H10R          -20.3076361685       -6.3745885021        4.7126548601  MEMB      21              0.0000000000
      2650        21  DOPC      C211          -19.1395861428       -8.0894409828        3.9193151813  MEMB      21              0.0000000000
      2651        21  DOPC      H11R          -19.9893360577       -8.5626611414        3.3823707034  MEMB      21              0.0000000000
      2652        21  DOPC      H11S          -18.5943050163       -8.9555431818        4.3515837036  MEMB      21              0.0000000000
      2653        21  DOPC      C212          -18.1741838510       -7.7830324050        2.6900587590  MEMB      21              0.0000000000
      2654        21  DOPC      H12R          -17.2353094143       -7.3318950955        3.0764660799  MEMB      21              0.0000000000
      2655        21  DOPC      H12S          -18.6549424603       -7.0172412671        2.0444912605  MEMB      21              0.0000000000
      2656        21  DOPC      C213          -17.9151359726       -9.1072933897        1.9198646571  MEMB      21              0.0000000000
      2657        21  DOPC      H13R          -17.8748423626       -9.8886275268        2.7086713706  MEMB      21              0.0000000000
      2658        21  DOPC      H13S          -16.9159868883       -9.0259197618        1.4409079553  MEMB      21              0.0000000000
      2659        21  DOPC      C214          -19.0644099613       -9.4312230809        0.8867122752  MEMB      21              0.0000000000
      2660        21  DOPC      H14R          -19.5383623078       -8.4611028989        0.6248784602  MEMB      21              0.0000000000
      2661        21  DOPC      H14S          -19.7916067464      -10.0725528973        1.4291166515  MEMB      21              0.0000000000
      2662        21  DOPC      C215          -18.4731554824      -10.3190522646       -0.2833539573  MEMB      21              0.0000000000
      2663        21  DOPC      H15R          -17.9304695763      -11.2245120851        0.0629925502  MEMB      21              0.0000000000
      2664        21  DOPC      H15S          -17.6947339123       -9.7174755282       -0.7995770633  MEMB      21              0.0000000000
      2665        21  DOPC      C216          -19.5655550283      -10.7024318490       -1.3767726943  MEMB      21              0.0000000000
      2666        21  DOPC      H16R          -19.0834210913      -11.1254787161       -2.2839090118  MEMB      21              0.0000000000
      2667        21  DOPC      H16S          -19.9297772628       -9.6991338093       -1.6850843661  MEMB      21              0.0000000000
      2668        21  DOPC      C217          -20.7191177830      -11.5988029938       -0.9091333923  MEMB      21              0.0000000000
      2669        21  DOPC      H17R          -21.2177231261      -11.1661577604       -0.0155277755  MEMB      21              0.0000000000
      2670        21  DOPC      H17S          -20.4276549538      -12.5674049989       -0.4495885385  MEMB      21              0.0000000000
      2671        21  DOPC      C218          -21.7436317802      -11.6998305492       -2.0289229877  MEMB      21              0.0000000000
      2672        21  DOPC      H18R          -22.0465600414      -10.6858822019       -2.3672485588  MEMB      21              0.0000000000
      2673        21  DOPC      H18S          -22.6875273331      -12.1963150064       -1.7176586030  MEMB      21              0.0000000000
      2674        21  DOPC      H18T          -21.3388799223      -12.1271631677       -2.9711982165  MEMB      21              0.0000000000
      2675        21  DOPC      C33           -22.6085602844       -8.2828042146       12.7143638143  MEMB      21              0.0000000000
      2676        21  DOPC      H3X           -22.8749098452       -9.3017722942       12.3606932428  MEMB      21              0.0000000000
      2677        21  DOPC      H3Y           -21.6481396197       -8.1458236227       12.1729305361  MEMB      21              0.0000000000
      2678        21  DOPC      C34           -23.8173132797       -7.6179212032       12.1181417678  MEMB      21              0.0000000000
      2679        21  DOPC      H4X           -23.7279310143       -6.5185503906       12.2512402871  MEMB      21              0.0000000000
      2680        21  DOPC      H4Y           -24.7233059792       -7.8714451125       12.7090934909  MEMB      21              0.0000000000
      2681        21  DOPC      C35           -24.1132510370       -7.9215085556       10.6029844777  MEMB      21              0.0000000000
      2682        21  DOPC      H5X           -25.0004030730       -7.2925842199       10.3755285024  MEMB      21              0.0000000000
      2683        21  DOPC      H5Y           -24.4230836872       -8.9740039222       10.4281187085  MEMB      21              0.0000000000
      2684        21  DOPC      C36           -23.0161024124       -7.8163116076        9.5870289368  MEMB      21              0.0000000000
      2685        21  DOPC      H6X           -22.6421574293       -6.7712721461        9.6357964802  MEMB      21              0.0000000000
      2686        21  DOPC      H6Y           -22.2024816355       -8.5159024578        9.8749782723  MEMB      21              0.0000000000
      2687        21  DOPC      C37           -23.4675816442       -8.0397803395        8.1544684806  MEMB      21              0.0000000000
      2688        21  DOPC      H7X           -23.5371207421       -9.1118510072        7.8713606996  MEMB      21              0.0000000000
      2689        21  DOPC      H7Y           -24.4570552112       -7.5573672709        8.0043323976  MEMB      21              0.0000000000
      2690        21  DOPC      C38           -22.4786917247       -7.3963849614        7.1299622854  MEMB      21              0.0000000000
      2691        21  DOPC      H8X           -22.6325736794       -7.6838711163        6.0678914507  MEMB      21              0.0000000000
      2692        21  DOPC      H8Y           -21.4666526798       -7.7976619097        7.3514904004  MEMB      21              0.0000000000
      2693        21  DOPC      C39           -22.2978512971       -5.8824866385        7.1665026049  MEMB      21              0.0000000000
      2694        21  DOPC      H9X           -21.4864149139       -5.5104103277        7.8092542698  MEMB      21              0.0000000000
      2695        21  DOPC      C310          -22.9702796267       -5.0014409944        6.4883155347  MEMB      21              0.0000000000
      2696        21  DOPC      H10X          -22.6372083409       -3.9570032044        6.5789398771  MEMB      21              0.0000000000
      2697        21  DOPC      C311          -24.0309597982       -5.2914259817        5.5218695124  MEMB      21              0.0000000000
      2698        21  DOPC      H11X          -24.6349460404       -4.3665221025        5.4032346010  MEMB      21              0.0000000000
      2699        21  DOPC      H11Y          -24.7626259515       -6.0147661421        5.9411126386  MEMB      21              0.0000000000
      2700        21  DOPC      C312          -23.6519458016       -5.5590878131        4.0336025800  MEMB      21              0.0000000000
      2701        21  DOPC      H12X          -24.4354747408       -5.4850860007        3.2494294919  MEMB      21              0.0000000000
      2702        21  DOPC      H12Y          -23.0992355034       -6.5224741043        4.0067826816  MEMB      21              0.0000000000
      2703        21  DOPC      C313          -22.4669498757       -4.6690667759        3.5640212194  MEMB      21              0.0000000000
      2704        21  DOPC      H13X          -22.8195403342       -3.6440280318        3.8075307148  MEMB      21              0.0000000000
      2705        21  DOPC      H13Y          -21.5265818969       -4.9815031524        4.0664279747  MEMB      21              0.0000000000
      2706        21  DOPC      C314          -22.2939612805       -4.6510935041        2.0099509673  MEMB      21              0.0000000000
      2707        21  DOPC      H14X          -23.2040076277       -4.2146904184        1.5455269685  MEMB      21              0.0000000000
      2708        21  DOPC      H14Y          -21.4260025869       -3.9594509248        1.9589696590  MEMB      21              0.0000000000
      2709        21  DOPC      C315          -22.0714106419       -6.1031078877        1.4914881719  MEMB      21              0.0000000000
      2710        21  DOPC      H15X          -23.0428473056       -6.6352247127        1.5779960632  MEMB      21              0.0000000000
      2711        21  DOPC      H15Y          -21.3579853170       -6.6098467671        2.1760045166  MEMB      21              0.0000000000
      2712        21  DOPC      C316          -21.4963954563       -6.2522470839        0.0684447331  MEMB      21              0.0000000000
      2713        21  DOPC      H16X          -21.4138497501       -7.3368449126       -0.1577289423  MEMB      21              0.0000000000
      2714        21  DOPC      H16Y          -22.3030305626       -5.7336324480       -0.4925352347  MEMB      21              0.0000000000
      2715        21  DOPC      C317          -20.1473433370       -5.6025318194       -0.2730297267  MEMB      21              0.0000000000
      2716        21  DOPC      H17X          -20.0960029135       -4.5920881855        0.1859799363  MEMB      21              0.0000000000
      2717        21  DOPC      H17Y          -19.3008753501       -6.1577691544        0.1847087326  MEMB      21              0.0000000000
      2718        21  DOPC      C318          -19.9324231380       -5.4155091338       -1.8295287872  MEMB      21              0.0000000000
      2719        21  DOPC      H18X          -19.9452634128       -6.4105534637       -2.3235343585  MEMB      21              0.0000000000
      2720        21  DOPC      H18Y          -20.6936614222       -4.8755936258       -2.4322950720  MEMB      21              0.0000000000
      2721        21  DOPC      H18Z          -18.9913571144       -4.8718269316       -2.0600175988  MEMB      21              0.0000000000
      2722        22  DOPC      N             -11.1654981857       15.0327100655       17.4858431890  MEMB      22              0.0000000000
      2723        22  DOPC      C12           -11.3061648921       16.5199484347       17.7775604819  MEMB      22              0.0000000000
      2724        22  DOPC      H12A          -12.3614439374       16.6835812268       17.9388381002  MEMB      22              0.0000000000
      2725        22  DOPC      H12B          -10.9627557515       17.0374670802       16.8940196425  MEMB      22              0.0000000000
      2726        22  DOPC      C13            -9.7486748591       14.5212447112       17.5831976133  MEMB      22              0.0000000000
      2727        22  DOPC      H13A           -9.4448387821       14.4855587069       18.6189630863  MEMB      22              0.0000000000
      2728        22  DOPC      H13B           -9.6670833512       13.5143188957       17.2013031853  MEMB      22              0.0000000000
      2729        22  DOPC      H13C           -9.0853076377       15.0789579328       16.9387600507  MEMB      22              0.0000000000
      2730        22  DOPC      C14           -11.6362631074       14.8951665387       16.0936279032  MEMB      22              0.0000000000
      2731        22  DOPC      H14A          -11.7530982230       13.8622043879       15.8008160807  MEMB      22              0.0000000000
      2732        22  DOPC      H14B          -12.4966391118       15.5333906755       15.9564306465  MEMB      22              0.0000000000
      2733        22  DOPC      H14C          -10.8701719226       15.2831957964       15.4386947425  MEMB      22              0.0000000000
      2734        22  DOPC      C15           -12.1990113304       14.2392987061       18.2995929827  MEMB      22              0.0000000000
      2735        22  DOPC      H15A          -13.1813494269       14.6463373949       18.1105652009  MEMB      22              0.0000000000
      2736        22  DOPC      H15B          -11.8528604702       14.0984484767       19.3128751360  MEMB      22              0.0000000000
      2737        22  DOPC      H15C          -12.2193658162       13.2713724794       17.8209445429  MEMB      22              0.0000000000
      2738        22  DOPC      C11           -10.6430090936       17.1661603389       18.9859365172  MEMB      22              0.0000000000
      2739        22  DOPC      H11A           -9.5588981844       16.9394006594       18.8987306809  MEMB      22              0.0000000000
      2740        22  DOPC      H11B          -10.8099047623       18.2643944720       19.0046097130  MEMB      22              0.0000000000
      2741        22  DOPC      P             -12.6049909504       17.0501976798       20.6244690931  MEMB      22              0.0000000000
      2742        22  DOPC      O13           -12.3431997540       18.1293797661       21.5431407664  MEMB      22              0.0000000000
      2743        22  DOPC      O14           -13.4965880415       15.9966196484       21.0897316178  MEMB      22              0.0000000000
      2744        22  DOPC      O12           -11.2298269570       16.4925839815       20.1653035916  MEMB      22              0.0000000000
      2745        22  DOPC      O11           -13.3293370304       17.6777083243       19.3515962441  MEMB      22              0.0000000000
      2746        22  DOPC      C1            -14.2097823117       18.7665352867       19.4548426397  MEMB      22              0.0000000000
      2747        22  DOPC      HA            -13.8460322714       19.5586350593       20.1437439701  MEMB      22              0.0000000000
      2748        22  DOPC      HB            -15.1292388671       18.3299211791       19.9001391397  MEMB      22              0.0000000000
      2749        22  DOPC      C2            -14.4028393906       19.4356672793       18.1321650910  MEMB      22              0.0000000000
      2750        22  DOPC      HS            -15.2737605845       20.1235341208       18.0806244968  MEMB      22              0.0000000000
      2751        22  DOPC      O21           -14.4565626839       18.4851811599       17.0553303658  MEMB      22              0.0000000000
      2752        22  DOPC      C21           -15.6944399056       17.9108282740       16.9807656068  MEMB      22              0.0000000000
      2753        22  DOPC      O22           -16.6219476279       18.3781400862       17.5917506889  MEMB      22              0.0000000000
      2754        22  DOPC      C22           -15.7557271739       16.7260811809       16.0400136712  MEMB      22              0.0000000000
      2755        22  DOPC      H2R           -16.8109368166       16.6721989652       15.6965755367  MEMB      22              0.0000000000
      2756        22  DOPC      H2S           -15.5697905620       15.7735985687       16.5808697330  MEMB      22              0.0000000000
      2757        22  DOPC      C3            -13.3020221737       20.5054141996       17.9116441700  MEMB      22              0.0000000000
      2758        22  DOPC      HX            -12.4646600755       19.7773307585       17.8565077571  MEMB      22              0.0000000000
      2759        22  DOPC      HY            -13.2292800962       21.1252354701       18.8308018832  MEMB      22              0.0000000000
      2760        22  DOPC      O31           -13.5636747773       21.2260354590       16.6841080464  MEMB      22              0.0000000000
      2761        22  DOPC      C31           -12.4787895566       21.4181668160       15.9095200623  MEMB      22              0.0000000000
      2762        22  DOPC      O32           -11.3140748430       21.2422805321       16.2209368516  MEMB      22              0.0000000000
      2763        22  DOPC      C32           -12.8911378985       21.6310759633       14.4182728736  MEMB      22              0.0000000000
      2764        22  DOPC      H2X           -13.9857003907       21.4761522483       14.3075813375  MEMB      22              0.0000000000
      2765        22  DOPC      H2Y           -12.6896527375       22.6290195640       13.9734894304  MEMB      22              0.0000000000
      2766        22  DOPC      C23           -14.7918501731       16.7909638723       14.9008947914  MEMB      22              0.0000000000
      2767        22  DOPC      H3R           -13.9227597524       16.1171197191       15.0588087593  MEMB      22              0.0000000000
      2768        22  DOPC      H3S           -14.4328551112       17.8085658968       14.6364519738  MEMB      22              0.0000000000
      2769        22  DOPC      C24           -15.4271634812       16.2028996316       13.6159495937  MEMB      22              0.0000000000
      2770        22  DOPC      H4R           -16.0206841189       17.0319892515       13.1747413812  MEMB      22              0.0000000000
      2771        22  DOPC      H4S           -16.1467128152       15.4624456687       14.0261911389  MEMB      22              0.0000000000
      2772        22  DOPC      C25           -14.4589281099       15.4498059445       12.7125151444  MEMB      22              0.0000000000
      2773        22  DOPC      H5R           -13.7819511119       14.7599100085       13.2602986916  MEMB      22              0.0000000000
      2774        22  DOPC      H5S           -13.8105023697       16.1900882336       12.1969115246  MEMB      22              0.0000000000
      2775        22  DOPC      C26           -15.0088018350       14.7120168293       11.5108112936  MEMB      22              0.0000000000
      2776        22  DOPC      H6R           -15.5342650613       15.5069840222       10.9396399408  MEMB      22              0.0000000000
      2777        22  DOPC      H6S           -15.7982868550       14.0174957700       11.8695241000  MEMB      22              0.0000000000
      2778        22  DOPC      C27           -14.0545775484       13.9190660154       10.5843183812  MEMB      22              0.0000000000
      2779        22  DOPC      H7R           -14.3984346652       12.8696756471       10.4624039644  MEMB      22              0.0000000000
      2780        22  DOPC      H7S           -13.0649844857       13.7185280017       11.0477958918  MEMB      22              0.0000000000
      2781        22  DOPC      C28           -13.9170209016       14.6457064807        9.1806277429  MEMB      22              0.0000000000
      2782        22  DOPC      H8R           -14.9444019876       14.7755364475        8.7781935774  MEMB      22              0.0000000000
      2783        22  DOPC      H8S           -13.4159817817       13.9087789198        8.5171386260  MEMB      22              0.0000000000
      2784        22  DOPC      C29           -13.3240610841       16.0131108479        9.1591219346  MEMB      22              0.0000000000
      2785        22  DOPC      H9R           -12.3458575949       16.0532167962        9.6606290645  MEMB      22              0.0000000000
      2786        22  DOPC      C210          -13.8196613975       17.1589382581        8.6591774124  MEMB      22              0.0000000000
      2787        22  DOPC      H10R          -13.2125907120       18.0751906708        8.7032970917  MEMB      22              0.0000000000
      2788        22  DOPC      C211          -15.1523569493       17.4965921402        7.9292786335  MEMB      22              0.0000000000
      2789        22  DOPC      H11R          -15.6801921947       18.3945376065        8.3158078846  MEMB      22              0.0000000000
      2790        22  DOPC      H11S          -15.9437731739       16.7677182437        8.2062686980  MEMB      22              0.0000000000
      2791        22  DOPC      C212          -14.8820452777       17.5742654154        6.4214312612  MEMB      22              0.0000000000
      2792        22  DOPC      H12R          -15.7418896612       18.1305363629        5.9906758078  MEMB      22              0.0000000000
      2793        22  DOPC      H12S          -14.8992642732       16.5540888374        5.9818130552  MEMB      22              0.0000000000
      2794        22  DOPC      C213          -13.5453442719       18.1443139798        5.8838938528  MEMB      22              0.0000000000
      2795        22  DOPC      H13R          -12.8600647913       17.3669787394        6.2844723180  MEMB      22              0.0000000000
      2796        22  DOPC      H13S          -13.3393470800       19.1428862105        6.3251872072  MEMB      22              0.0000000000
      2797        22  DOPC      C214          -13.3734141269       18.1495782862        4.3951963027  MEMB      22              0.0000000000
      2798        22  DOPC      H14R          -13.3610876217       17.0823323281        4.0867238716  MEMB      22              0.0000000000
      2799        22  DOPC      H14S          -12.3510017027       18.5111458119        4.1538193347  MEMB      22              0.0000000000
      2800        22  DOPC      C215          -14.4983706238       18.8986332294        3.6755769185  MEMB      22              0.0000000000
      2801        22  DOPC      H15R          -14.4448836391       19.9589638725        4.0029288525  MEMB      22              0.0000000000
      2802        22  DOPC      H15S          -15.4988724978       18.5669442574        4.0267165816  MEMB      22              0.0000000000
      2803        22  DOPC      C216          -14.4189645183       18.8262668054        2.1185029548  MEMB      22              0.0000000000
      2804        22  DOPC      H16R          -15.3048030721       19.4263983692        1.8194173526  MEMB      22              0.0000000000
      2805        22  DOPC      H16S          -14.5882428207       17.7921679654        1.7493072824  MEMB      22              0.0000000000
      2806        22  DOPC      C217          -13.1294616052       19.4127389868        1.4751614323  MEMB      22              0.0000000000
      2807        22  DOPC      H17R          -13.1892886333       19.2473756953        0.3781658668  MEMB      22              0.0000000000
      2808        22  DOPC      H17S          -12.2554425207       18.8640634996        1.8867029710  MEMB      22              0.0000000000
      2809        22  DOPC      C218          -12.8117168215       20.9154109716        1.5803727152  MEMB      22              0.0000000000
      2810        22  DOPC      H18R          -12.8355686388       21.1107620319        2.6738025447  MEMB      22              0.0000000000
      2811        22  DOPC      H18S          -13.6171101626       21.4893946598        1.0742052052  MEMB      22              0.0000000000
      2812        22  DOPC      H18T          -11.7947537434       21.2753822845        1.3148012448  MEMB      22              0.0000000000
      2813        22  DOPC      C33           -12.1493565398       20.5104703469       13.6064040433  MEMB      22              0.0000000000
      2814        22  DOPC      H3X           -12.1688513958       19.5243564053       14.1177950792  MEMB      22              0.0000000000
      2815        22  DOPC      H3Y           -11.0536048171       20.6894142968       13.5660550458  MEMB      22              0.0000000000
      2816        22  DOPC      C34           -12.5234436201       20.3449200851       12.1035157884  MEMB      22              0.0000000000
      2817        22  DOPC      H4X           -11.9185027710       21.0875930982       11.5406623102  MEMB      22              0.0000000000
      2818        22  DOPC      H4Y           -13.5762837498       20.6891419979       12.0177262043  MEMB      22              0.0000000000
      2819        22  DOPC      C35           -12.4513555338       18.9538886110       11.6150936378  MEMB      22              0.0000000000
      2820        22  DOPC      H5X           -12.8346943978       19.0283374522       10.5749833364  MEMB      22              0.0000000000
      2821        22  DOPC      H5Y           -13.2490936513       18.3379182420       12.0825496977  MEMB      22              0.0000000000
      2822        22  DOPC      C36           -11.0310707126       18.3243331950       11.6459561531  MEMB      22              0.0000000000
      2823        22  DOPC      H6X           -10.7446965115       17.8674143934       12.6173140133  MEMB      22              0.0000000000
      2824        22  DOPC      H6Y           -11.1661559198       17.4781559255       10.9388090872  MEMB      22              0.0000000000
      2825        22  DOPC      C37            -9.9112988881       19.2303761678       11.1786354860  MEMB      22              0.0000000000
      2826        22  DOPC      H7X            -9.6702185897       20.0804485685       11.8521175578  MEMB      22              0.0000000000
      2827        22  DOPC      H7Y            -8.9992722056       18.6242576001       11.3661158279  MEMB      22              0.0000000000
      2828        22  DOPC      C38           -10.0198755053       19.7534173418        9.7333402682  MEMB      22              0.0000000000
      2829        22  DOPC      H8X            -9.2155316170       20.5003504689        9.5617518882  MEMB      22              0.0000000000
      2830        22  DOPC      H8Y           -10.9693495801       20.3299618865        9.7129392334  MEMB      22              0.0000000000
      2831        22  DOPC      C39           -10.1231056395       18.7684681762        8.5695894024  MEMB      22              0.0000000000
      2832        22  DOPC      H9X           -10.3693317572       17.7314101210        8.8414047650  MEMB      22              0.0000000000
      2833        22  DOPC      C310           -9.8545142468       19.1521753131        7.3118058255  MEMB      22              0.0000000000
      2834        22  DOPC      H10X          -10.0679344769       18.4058148631        6.5324491215  MEMB      22              0.0000000000
      2835        22  DOPC      C311           -9.4258079038       20.4945494470        6.7369909167  MEMB      22              0.0000000000
      2836        22  DOPC      H11X           -8.3307602493       20.5981751720        6.8933660395  MEMB      22              0.0000000000
      2837        22  DOPC      H11Y           -9.9501253570       21.2013862231        7.4150714556  MEMB      22              0.0000000000
      2838        22  DOPC      C312           -9.7555789407       20.7949069258        5.2866806366  MEMB      22              0.0000000000
      2839        22  DOPC      H12X           -9.5286723545       21.8672112962        5.1050269102  MEMB      22              0.0000000000
      2840        22  DOPC      H12Y          -10.8442320247       20.6936844135        5.0894256625  MEMB      22              0.0000000000
      2841        22  DOPC      C313           -9.1092226223       19.9025970398        4.1988740894  MEMB      22              0.0000000000
      2842        22  DOPC      H13X           -8.0114901506       19.9093747300        4.3699240821  MEMB      22              0.0000000000
      2843        22  DOPC      H13Y           -9.5897449809       18.9012864478        4.1706536502  MEMB      22              0.0000000000
      2844        22  DOPC      C314           -9.3185471521       20.4104470531        2.7574055124  MEMB      22              0.0000000000
      2845        22  DOPC      H14X          -10.2520528321       20.0144575592        2.3034448437  MEMB      22              0.0000000000
      2846        22  DOPC      H14Y           -9.4367516075       21.5126247623        2.8319216730  MEMB      22              0.0000000000
      2847        22  DOPC      C315           -8.0381213708       20.1576695463        1.9146295823  MEMB      22              0.0000000000
      2848        22  DOPC      H15X           -7.1177953276       20.6757229714        2.2595087263  MEMB      22              0.0000000000
      2849        22  DOPC      H15Y           -8.3062002927       20.5976149009        0.9303020178  MEMB      22              0.0000000000
      2850        22  DOPC      C316           -7.5676598945       18.7233036592        1.8113202109  MEMB      22              0.0000000000
      2851        22  DOPC      H16X           -6.5078100675       18.6319811156        1.4908531576  MEMB      22              0.0000000000
      2852        22  DOPC      H16Y           -7.7257668459       18.3946028952        2.8607387656  MEMB      22              0.0000000000
      2853        22  DOPC      C317           -8.4487228648       17.6682019931        1.0031628748  MEMB      22              0.0000000000
      2854        22  DOPC      H17X           -8.3418195324       16.6506656846        1.4361911344  MEMB      22              0.0000000000
      2855        22  DOPC      H17Y           -9.5219382899       17.8598714338        1.2171557517  MEMB      22              0.0000000000
      2856        22  DOPC      C318           -8.2359369100       17.5952193756       -0.5485534222  MEMB      22              0.0000000000
      2857        22  DOPC      H18X           -7.8006546422       16.6130258391       -0.8316552367  MEMB      22              0.0000000000
      2858        22  DOPC      H18Y           -9.2449051999       17.7040202815       -1.0007346439  MEMB      22              0.0000000000
      2859        22  DOPC      H18Z           -7.6359204660       18.4385888646       -0.9523232904  MEMB      22              0.0000000000
      2860        23  23SM      N              -4.8547292546       21.5551466624       27.5811725847  MEMB      23              0.0000000000
      2861        23  23SM      C15            -4.6847750388       22.9922315088       27.4072931443  MEMB      23              0.0000000000
      2862        23  23SM      H15A           -3.6394054009       23.1616210888       27.6192117353  MEMB      23              0.0000000000
      2863        23  23SM      H15B           -5.2822857815       23.5495000475       28.1135740282  MEMB      23              0.0000000000
      2864        23  23SM      H15C           -4.8759555858       23.1768954676       26.3605127050  MEMB      23              0.0000000000
      2865        23  23SM      C14            -3.7151712733       20.8471513842       26.8862938543  MEMB      23              0.0000000000
      2866        23  23SM      H14A           -3.6442996032       20.9712989318       25.8157965481  MEMB      23              0.0000000000
      2867        23  23SM      H14B           -3.9214010959       19.8247018416       27.1664120561  MEMB      23              0.0000000000
      2868        23  23SM      H14C           -2.7289278053       21.0654074507       27.2685089933  MEMB      23              0.0000000000
      2869        23  23SM      C13            -4.8196453509       21.1627379500       29.0228124639  MEMB      23              0.0000000000
      2870        23  23SM      H13A           -3.9109651051       21.6162416756       29.3902832958  MEMB      23              0.0000000000
      2871        23  23SM      H13B           -4.7894181879       20.0958919659       29.1881180505  MEMB      23              0.0000000000
      2872        23  23SM      H13C           -5.7232766747       21.5012548045       29.5078453235  MEMB      23              0.0000000000
      2873        23  23SM      C12            -6.2551082421       21.2219420454       27.0639349472  MEMB      23              0.0000000000
      2874        23  23SM      H12A           -7.0016850749       21.7427266940       27.6451461264  MEMB      23              0.0000000000
      2875        23  23SM      H12B           -6.3011588183       20.1659759476       27.2857794231  MEMB      23              0.0000000000
      2876        23  23SM      C11            -6.7148843552       21.3394589045       25.5705975030  MEMB      23              0.0000000000
      2877        23  23SM      H11A           -6.5116259294       22.3722441576       25.2151233704  MEMB      23              0.0000000000
      2878        23  23SM      H11B           -7.7711595475       21.0521976033       25.3806379637  MEMB      23              0.0000000000
      2879        23  23SM      P              -6.2528743423       18.9048447541       24.5674173186  MEMB      23              0.0000000000
      2880        23  23SM      O13            -4.9676123610       18.1511047565       24.6242551082  MEMB      23              0.0000000000
      2881        23  23SM      O14            -7.4077781427       18.4912085002       25.4166289495  MEMB      23              0.0000000000
      2882        23  23SM      O11            -6.7728274050       18.8552976709       23.0447988335  MEMB      23              0.0000000000
      2883        23  23SM      O12            -5.8728942010       20.4519933149       24.8147952981  MEMB      23              0.0000000000
      2884        23  23SM      C1S            -7.5594614303       19.9475556037       22.5009000147  MEMB      23              0.0000000000
      2885        23  23SM      H1S            -7.2682584889       20.8914509059       23.0094111586  MEMB      23              0.0000000000
      2886        23  23SM      H1T            -8.5980140901       19.5732003033       22.6257499310  MEMB      23              0.0000000000
      2887        23  23SM      NF             -7.2773157758       21.5183965191       20.5499777862  MEMB      23              0.0000000000
      2888        23  23SM      HNF            -7.8990595801       21.8016042497       19.8238669521  MEMB      23              0.0000000000
      2889        23  23SM      C2S            -7.3179751307       20.1018146518       20.9738384029  MEMB      23              0.0000000000
      2890        23  23SM      H2S            -6.3062385036       19.6763631932       20.8014983237  MEMB      23              0.0000000000
      2891        23  23SM      C3S            -8.3055262853       19.3740486000       20.0736161564  MEMB      23              0.0000000000
      2892        23  23SM      H3S            -9.3501857438       19.7005185450       20.2644684131  MEMB      23              0.0000000000
      2893        23  23SM      O3             -8.4169269705       18.0258893511       20.3544901575  MEMB      23              0.0000000000
      2894        23  23SM      HO3            -7.7725006347       17.8230691347       21.0365300592  MEMB      23              0.0000000000
      2895        23  23SM      C4S            -7.9711047838       19.5024462657       18.5489359855  MEMB      23              0.0000000000
      2896        23  23SM      H4S            -7.1076161872       18.8753297962       18.2822670486  MEMB      23              0.0000000000
      2897        23  23SM      C5S            -8.6608058188       20.2100135708       17.6331530350  MEMB      23              0.0000000000
      2898        23  23SM      H5S            -9.5327670757       20.7969002401       17.9575712005  MEMB      23              0.0000000000
      2899        23  23SM      C6S            -8.3787437981       20.3070869673       16.1836120170  MEMB      23              0.0000000000
      2900        23  23SM      H6S            -7.9310029770       21.3137899230       16.0407898911  MEMB      23              0.0000000000
      2901        23  23SM      H6T            -9.2755200937       20.1813444165       15.5399494753  MEMB      23              0.0000000000
      2902        23  23SM      C7S            -7.3091546687       19.4414682642       15.5647077785  MEMB      23              0.0000000000
      2903        23  23SM      H7S            -7.5995219054       18.3824054673       15.7332125559  MEMB      23              0.0000000000
      2904        23  23SM      H7T            -6.3678559600       19.6944551809       16.0978821002  MEMB      23              0.0000000000
      2905        23  23SM      C8S            -7.0881769401       19.6344500761       13.9998133773  MEMB      23              0.0000000000
      2906        23  23SM      H8S            -6.1654027606       19.0309554400       13.8634200134  MEMB      23              0.0000000000
      2907        23  23SM      H8T            -7.0013369293       20.7224252731       13.7922318349  MEMB      23              0.0000000000
      2908        23  23SM      C9S            -8.2407214776       19.0942463004       13.1666121290  MEMB      23              0.0000000000
      2909        23  23SM      H9S            -8.9902491502       19.8475280596       13.4907974177  MEMB      23              0.0000000000
      2910        23  23SM      H9T            -8.4681060703       18.0482250663       13.4640290053  MEMB      23              0.0000000000
      2911        23  23SM      C10S           -8.0037889242       19.2586638878       11.6844826030  MEMB      23              0.0000000000
      2912        23  23SM      H10S           -7.1074828475       19.8904420507       11.5061211886  MEMB      23              0.0000000000
      2913        23  23SM      H10T           -8.8774059445       19.6252531572       11.1042011206  MEMB      23              0.0000000000
      2914        23  23SM      C11S           -7.6296182258       17.8981752677       11.0868752556  MEMB      23              0.0000000000
      2915        23  23SM      H11S           -8.4471955096       17.1495640415       11.1608321472  MEMB      23              0.0000000000
      2916        23  23SM      H11T           -6.8617429204       17.4062237492       11.7214394527  MEMB      23              0.0000000000
      2917        23  23SM      C12S           -7.1625179713       17.9628400974        9.6270204688  MEMB      23              0.0000000000
      2918        23  23SM      H12S           -6.3032878683       18.6671420258        9.6288863509  MEMB      23              0.0000000000
      2919        23  23SM      H12T           -7.9629828735       18.4449083639        9.0260332584  MEMB      23              0.0000000000
      2920        23  23SM      C13S           -6.5657696860       16.6924458392        9.0471409135  MEMB      23              0.0000000000
      2921        23  23SM      H13S           -7.3121959677       15.8800328664        8.9161672296  MEMB      23              0.0000000000
      2922        23  23SM      H13T           -5.8689655905       16.2349522452        9.7816369137  MEMB      23              0.0000000000
      2923        23  23SM      C14S           -5.5827547137       16.8353389771        7.9202622630  MEMB      23              0.0000000000
      2924        23  23SM      H14S           -5.0930552501       15.8418783886        7.8333609721  MEMB      23              0.0000000000
      2925        23  23SM      H14T           -4.8030208864       17.5200429548        8.3171473386  MEMB      23              0.0000000000
      2926        23  23SM      C15S           -6.2464537845       17.2104306364        6.5122343121  MEMB      23              0.0000000000
      2927        23  23SM      H15S           -6.6862500447       18.2247332422        6.4022774427  MEMB      23              0.0000000000
      2928        23  23SM      H15T           -7.0533216147       16.4733772966        6.3121404455  MEMB      23              0.0000000000
      2929        23  23SM      C16S           -5.3029078189       17.1303803078        5.2895045783  MEMB      23              0.0000000000
      2930        23  23SM      H16S           -5.0211357927       16.0717924047        5.1042541817  MEMB      23              0.0000000000
      2931        23  23SM      H16T           -4.4777182654       17.7965635114        5.6205371485  MEMB      23              0.0000000000
      2932        23  23SM      C17S           -5.9010536559       17.6426638927        3.9101533483  MEMB      23              0.0000000000
      2933        23  23SM      H17S           -6.1310347255       18.7282277034        3.9647527773  MEMB      23              0.0000000000
      2934        23  23SM      H17T           -6.8496434015       17.1628806121        3.5871877169  MEMB      23              0.0000000000
      2935        23  23SM      C18S           -5.0543979752       17.4075821200        2.6153943531  MEMB      23              0.0000000000
      2936        23  23SM      H18S           -4.0536499010       17.8850544107        2.6849972701  MEMB      23              0.0000000000
      2937        23  23SM      H18T           -5.5109926282       17.9776285139        1.7782032431  MEMB      23              0.0000000000
      2938        23  23SM      H18U           -4.9638768276       16.3146230713        2.4377218949  MEMB      23              0.0000000000
      2939        23  23SM      C1F            -6.3341547983       22.4232998791       20.9600510618  MEMB      23              0.0000000000
      2940        23  23SM      OF             -5.4274103699       22.1052524148       21.6938497426  MEMB      23              0.0000000000
      2941        23  23SM      C2F            -6.4514800279       23.8142377027       20.4012393832  MEMB      23              0.0000000000
      2942        23  23SM      H2F            -5.9218779845       24.3704231339       21.2040473112  MEMB      23              0.0000000000
      2943        23  23SM      H2G            -7.4748739064       24.2466560951       20.4006803717  MEMB      23              0.0000000000
      2944        23  23SM      C3F            -5.6418190671       23.9605173052       19.1437247158  MEMB      23              0.0000000000
      2945        23  23SM      H3F            -4.7454155432       23.3042034346       19.1495337900  MEMB      23              0.0000000000
      2946        23  23SM      H3G            -5.2628400996       25.0044675764       19.1143270769  MEMB      23              0.0000000000
      2947        23  23SM      C4F            -6.3253316509       23.6096175678       17.8610920518  MEMB      23              0.0000000000
      2948        23  23SM      H4F            -7.4092605066       23.8037418443       18.0085206448  MEMB      23              0.0000000000
      2949        23  23SM      H4G            -6.2011029995       22.5300494795       17.6299632305  MEMB      23              0.0000000000
      2950        23  23SM      C5F            -5.6501362022       24.2344952561       16.6554347438  MEMB      23              0.0000000000
      2951        23  23SM      H5F            -4.5418701634       24.1817102552       16.7127161954  MEMB      23              0.0000000000
      2952        23  23SM      H5G            -5.8801605499       25.3197688454       16.5955074199  MEMB      23              0.0000000000
      2953        23  23SM      C6F            -6.1859660993       23.6437322613       15.3556952872  MEMB      23              0.0000000000
      2954        23  23SM      H6F            -7.2768584179       23.5351408578       15.5359255324  MEMB      23              0.0000000000
      2955        23  23SM      H6G            -5.7759794469       22.6152988324       15.2631934754  MEMB      23              0.0000000000
      2956        23  23SM      C7F            -5.8551760659       24.3696903053       14.0771974588  MEMB      23              0.0000000000
      2957        23  23SM      H7F            -4.7551729309       24.4979858493       13.9885730733  MEMB      23              0.0000000000
      2958        23  23SM      H7G            -6.3180661273       25.3796666126       14.0757465387  MEMB      23              0.0000000000
      2959        23  23SM      C8F            -6.2103975641       23.6436537031       12.7695582964  MEMB      23              0.0000000000
      2960        23  23SM      H8F            -6.0521415030       22.5443841849       12.7992675228  MEMB      23              0.0000000000
      2961        23  23SM      H8G            -5.4655521501       24.0869655551       12.0745750680  MEMB      23              0.0000000000
      2962        23  23SM      C9F            -7.7423737908       23.8080439319       12.5129207604  MEMB      23              0.0000000000
      2963        23  23SM      H9F            -8.0030735255       24.8879945936       12.5208908599  MEMB      23              0.0000000000
      2964        23  23SM      H9G            -8.1949366308       23.2043183578       13.3284098875  MEMB      23              0.0000000000
      2965        23  23SM      C10F           -8.0713333117       23.2060240137       11.1425291075  MEMB      23              0.0000000000
      2966        23  23SM      H10F           -7.6417480367       22.1880869014       11.2590688186  MEMB      23              0.0000000000
      2967        23  23SM      H10G           -7.6126709737       23.7484149461       10.2882678850  MEMB      23              0.0000000000
      2968        23  23SM      C11F           -9.6193099330       23.2149232787       10.8674687126  MEMB      23              0.0000000000
      2969        23  23SM      H11F          -10.0749641991       24.2244460493       10.7804980024  MEMB      23              0.0000000000
      2970        23  23SM      H11G          -10.0774273007       22.6448315421       11.7037971841  MEMB      23              0.0000000000
      2971        23  23SM      C12F           -9.9368814788       22.5832577537        9.5086857738  MEMB      23              0.0000000000
      2972        23  23SM      H12F          -10.9945374444       22.2564821255        9.4143325523  MEMB      23              0.0000000000
      2973        23  23SM      H12G           -9.2500185609       21.7133576885        9.4324357053  MEMB      23              0.0000000000
      2974        23  23SM      C13F           -9.6726060647       23.4159320980        8.2733076259  MEMB      23              0.0000000000
      2975        23  23SM      H13F           -8.5997166302       23.6190890127        8.0684754623  MEMB      23              0.0000000000
      2976        23  23SM      H13G          -10.2227641669       24.3800185242        8.2265740530  MEMB      23              0.0000000000
      2977        23  23SM      C14F          -10.1246888683       22.6386701621        6.9708275644  MEMB      23              0.0000000000
      2978        23  23SM      H14F          -10.3894891761       23.3514020803        6.1607560525  MEMB      23              0.0000000000
      2979        23  23SM      H14G          -11.0651832603       22.1599248286        7.3180951769  MEMB      23              0.0000000000
      2980        23  23SM      C15F           -9.1879139095       21.6077297119        6.4215792375  MEMB      23              0.0000000000
      2981        23  23SM      H15F           -9.6778449696       20.8586016179        5.7634800453  MEMB      23              0.0000000000
      2982        23  23SM      H15G           -8.7813042434       21.0634855506        7.3006627401  MEMB      23              0.0000000000
      2983        23  23SM      C16F           -8.0971988887       22.3330752365        5.6071513547  MEMB      23              0.0000000000
      2984        23  23SM      H16F           -7.5734562420       23.0964913949        6.2213262699  MEMB      23              0.0000000000
      2985        23  23SM      H16G           -8.5373841114       22.9911552954        4.8277360415  MEMB      23              0.0000000000
      2986        23  23SM      C17F           -6.9294621340       21.5652779346        4.9683714761  MEMB      23              0.0000000000
      2987        23  23SM      H17F           -7.3931620159       20.6039088308        4.6600324859  MEMB      23              0.0000000000
      2988        23  23SM      H17G           -6.2425606657       21.3055227739        5.8020454947  MEMB      23              0.0000000000
      2989        23  23SM      C18F           -6.2344681669       22.0962979785        3.7639583106  MEMB      23              0.0000000000
      2990        23  23SM      H18F           -5.3965347151       21.4155321983        3.5017630581  MEMB      23              0.0000000000
      2991        23  23SM      H18G           -5.7285711510       23.0119051423        4.1381949726  MEMB      23              0.0000000000
      2992        23  23SM      C19F           -7.1702817073       22.4794348877        2.6007814013  MEMB      23              0.0000000000
      2993        23  23SM      H19F           -6.4641950530       22.7497290471        1.7867166355  MEMB      23              0.0000000000
      2994        23  23SM      H19G           -7.6294677998       23.4454997261        2.9010958912  MEMB      23              0.0000000000
      2995        23  23SM      C20F           -8.1368045531       21.3905073182        2.0356381313  MEMB      23              0.0000000000
      2996        23  23SM      H20F           -9.0305589293       21.2166967290        2.6722810759  MEMB      23              0.0000000000
      2997        23  23SM      H20G           -7.5219063152       20.4652483966        2.0464472347  MEMB      23              0.0000000000
      2998        23  23SM      C21F           -8.4599426654       21.7593108797        0.5623863249  MEMB      23              0.0000000000
      2999        23  23SM      H21F           -9.1188678996       20.9534597146        0.1741301648  MEMB      23              0.0000000000
      3000        23  23SM      H21G           -7.5159046645       21.7883091776       -0.0226544057  MEMB      23              0.0000000000
      3001        23  23SM      C22F           -9.2168395745       23.1154525585        0.3186114007  MEMB      23              0.0000000000
      3002        23  23SM      H22F           -9.2935376813       23.3348256029       -0.7678096040  MEMB      23              0.0000000000
      3003        23  23SM      H22G           -8.5385650208       23.9281361923        0.6559683548  MEMB      23              0.0000000000
      3004        23  23SM      C23F          -10.5715594357       23.1260213737        1.0899282435  MEMB      23              0.0000000000
      3005        23  23SM      H23F          -11.1738827599       23.9278381238        0.6117891400  MEMB      23              0.0000000000
      3006        23  23SM      H23G          -10.4119883891       23.4185195521        2.1497883910  MEMB      23              0.0000000000
      3007        23  23SM      H23H          -11.0507905261       22.1290673099        0.9862894809  MEMB      23              0.0000000000
      3008        24  DOPC      N             -13.1741765489      -18.7814087218       17.5266200198  MEMB      24              0.0000000000
      3009        24  DOPC      C12           -13.4065649938      -18.7928704908       19.0271724015  MEMB      24              0.0000000000
      3010        24  DOPC      H12A          -12.8020720106      -19.5493498673       19.5054266757  MEMB      24              0.0000000000
      3011        24  DOPC      H12B          -14.3859916737      -19.2131581771       19.2017622477  MEMB      24              0.0000000000
      3012        24  DOPC      C13           -14.0449658392      -17.8127235269       16.8620424022  MEMB      24              0.0000000000
      3013        24  DOPC      H13A          -15.0379545508      -17.7982069776       17.2864981529  MEMB      24              0.0000000000
      3014        24  DOPC      H13B          -13.6998920641      -16.8023549379       17.0247675911  MEMB      24              0.0000000000
      3015        24  DOPC      H13C          -14.0074895665      -17.8788057949       15.7847177567  MEMB      24              0.0000000000
      3016        24  DOPC      C14           -13.7193364946      -20.1731127461       17.0610511578  MEMB      24              0.0000000000
      3017        24  DOPC      H14A          -14.7499225962      -20.2330719682       17.3783792740  MEMB      24              0.0000000000
      3018        24  DOPC      H14B          -13.6432997370      -20.0713039629       15.9885524890  MEMB      24              0.0000000000
      3019        24  DOPC      H14C          -13.1316890142      -20.9816816421       17.4700581659  MEMB      24              0.0000000000
      3020        24  DOPC      C15           -11.7035626615      -18.5458168596       17.2439773763  MEMB      24              0.0000000000
      3021        24  DOPC      H15A          -11.3431748408      -17.6438640815       17.7162078729  MEMB      24              0.0000000000
      3022        24  DOPC      H15B          -11.5167317191      -18.6839195405       16.1892631226  MEMB      24              0.0000000000
      3023        24  DOPC      H15C          -11.1021122225      -19.3078772079       17.7171803479  MEMB      24              0.0000000000
      3024        24  DOPC      C11           -13.3375978879      -17.4861892644       19.8179830055  MEMB      24              0.0000000000
      3025        24  DOPC      H11A          -14.1501117186      -16.8048194614       19.4865052567  MEMB      24              0.0000000000
      3026        24  DOPC      H11B          -13.4863768448      -17.7937051179       20.8751584537  MEMB      24              0.0000000000
      3027        24  DOPC      P             -11.6374151531      -15.5771028938       20.3655181693  MEMB      24              0.0000000000
      3028        24  DOPC      O13           -10.2283712198      -15.4334871371       20.8594888863  MEMB      24              0.0000000000
      3029        24  DOPC      O14           -12.5979432811      -15.0928653588       21.3437529423  MEMB      24              0.0000000000
      3030        24  DOPC      O12           -11.9561578760      -16.9439544754       19.7988651930  MEMB      24              0.0000000000
      3031        24  DOPC      O11           -11.9495547129      -14.7539056800       19.0935284432  MEMB      24              0.0000000000
      3032        24  DOPC      C1            -11.0650691008      -14.7086886843       17.9588135741  MEMB      24              0.0000000000
      3033        24  DOPC      HA            -10.8986551596      -15.7703938294       17.6770160268  MEMB      24              0.0000000000
      3034        24  DOPC      HB            -10.1160147177      -14.1600139463       18.1392927013  MEMB      24              0.0000000000
      3035        24  DOPC      C2            -11.8008998915      -13.8899829503       16.7632815146  MEMB      24              0.0000000000
      3036        24  DOPC      HS            -12.0556138918      -12.9412644552       17.2822949624  MEMB      24              0.0000000000
      3037        24  DOPC      O21           -13.0214308819      -14.6419213978       16.3803401355  MEMB      24              0.0000000000
      3038        24  DOPC      C21           -13.8136475874      -14.0927320958       15.5350348018  MEMB      24              0.0000000000
      3039        24  DOPC      O22           -13.8120616491      -12.8629449022       15.3242734969  MEMB      24              0.0000000000
      3040        24  DOPC      C22           -14.6826493289      -15.0764189282       14.8120673735  MEMB      24              0.0000000000
      3041        24  DOPC      H2R           -15.6235287961      -15.1478873254       15.3985476452  MEMB      24              0.0000000000
      3042        24  DOPC      H2S           -14.1721717275      -16.0598553895       14.7309107136  MEMB      24              0.0000000000
      3043        24  DOPC      C3            -10.8526672238      -13.8604368636       15.5343001240  MEMB      24              0.0000000000
      3044        24  DOPC      HX             -9.9518147856      -13.3179832868       15.8928107113  MEMB      24              0.0000000000
      3045        24  DOPC      HY            -11.3104806966      -13.2885771635       14.6990132493  MEMB      24              0.0000000000
      3046        24  DOPC      O31           -10.4752738019      -15.1556356336       15.1730642280  MEMB      24              0.0000000000
      3047        24  DOPC      C31            -9.7100393272      -15.2016323737       14.1384561616  MEMB      24              0.0000000000
      3048        24  DOPC      O32            -9.1373682109      -14.2671489705       13.6085696079  MEMB      24              0.0000000000
      3049        24  DOPC      C32            -9.6668934899      -16.6999997053       13.6447453085  MEMB      24              0.0000000000
      3050        24  DOPC      H2X            -8.8708092786      -16.7915923799       12.8752122010  MEMB      24              0.0000000000
      3051        24  DOPC      H2Y            -9.3731602741      -17.3319725165       14.5099921010  MEMB      24              0.0000000000
      3052        24  DOPC      C23           -15.1234783092      -14.4355133560       13.4997014326  MEMB      24              0.0000000000
      3053        24  DOPC      H3R           -15.7486449366      -13.5261622654       13.6284208140  MEMB      24              0.0000000000
      3054        24  DOPC      H3S           -15.7579114777      -15.1783091897       12.9704853001  MEMB      24              0.0000000000
      3055        24  DOPC      C24           -13.9392004680      -14.2639689036       12.4848248614  MEMB      24              0.0000000000
      3056        24  DOPC      H4R           -13.4514027536      -15.2502395301       12.6385923828  MEMB      24              0.0000000000
      3057        24  DOPC      H4S           -13.1584353086      -13.5590905578       12.8424182530  MEMB      24              0.0000000000
      3058        24  DOPC      C25           -14.2921747956      -13.9336375853       11.0277757833  MEMB      24              0.0000000000
      3059        24  DOPC      H5R           -15.0624739797      -13.1583376065       10.8280998607  MEMB      24              0.0000000000
      3060        24  DOPC      H5S           -14.7006850495      -14.8853195328       10.6256040840  MEMB      24              0.0000000000
      3061        24  DOPC      C26           -13.0964259497      -13.6133067868       10.1978519641  MEMB      24              0.0000000000
      3062        24  DOPC      H6R           -12.2041392273      -13.9938535381       10.7394515356  MEMB      24              0.0000000000
      3063        24  DOPC      H6S           -12.9444525275      -12.5154055503       10.1214481286  MEMB      24              0.0000000000
      3064        24  DOPC      C27           -13.0821823200      -14.1609752060        8.7416134202  MEMB      24              0.0000000000
      3065        24  DOPC      H7R           -13.7168014386      -13.5067500580        8.1063422217  MEMB      24              0.0000000000
      3066        24  DOPC      H7S           -13.4962501510      -15.1918474480        8.7285179149  MEMB      24              0.0000000000
      3067        24  DOPC      C28           -11.6082779043      -14.1096600484        8.0913372809  MEMB      24              0.0000000000
      3068        24  DOPC      H8R           -11.1941963385      -13.1162642134        8.3670588097  MEMB      24              0.0000000000
      3069        24  DOPC      H8S           -11.6425644011      -14.1234880036        6.9809529347  MEMB      24              0.0000000000
      3070        24  DOPC      C29           -10.6863908711      -15.1467737587        8.5895082861  MEMB      24              0.0000000000
      3071        24  DOPC      H9R           -10.3737604395      -15.2020074241        9.6426999179  MEMB      24              0.0000000000
      3072        24  DOPC      C210          -10.3534631239      -16.2647848408        7.8624110617  MEMB      24              0.0000000000
      3073        24  DOPC      H10R           -9.7396090265      -17.0292025715        8.3612580938  MEMB      24              0.0000000000
      3074        24  DOPC      C211          -10.7538317812      -16.7175164301        6.5216420634  MEMB      24              0.0000000000
      3075        24  DOPC      H11R          -11.7068101636      -16.2534831593        6.1887362137  MEMB      24              0.0000000000
      3076        24  DOPC      H11S          -10.9677785335      -17.8001190290        6.6501702115  MEMB      24              0.0000000000
      3077        24  DOPC      C212           -9.7039061825      -16.6267025898        5.4336524301  MEMB      24              0.0000000000
      3078        24  DOPC      H12R           -9.0955201895      -15.7039794969        5.5466544732  MEMB      24              0.0000000000
      3079        24  DOPC      H12S          -10.0331769072      -16.4024992299        4.3965239816  MEMB      24              0.0000000000
      3080        24  DOPC      C213           -8.6708464909      -17.6853794933        5.3484368174  MEMB      24              0.0000000000
      3081        24  DOPC      H13R           -8.2878592052      -17.9290327853        6.3624763334  MEMB      24              0.0000000000
      3082        24  DOPC      H13S           -7.7995703709      -17.4929122933        4.6865039236  MEMB      24              0.0000000000
      3083        24  DOPC      C214           -9.2325142607      -19.1349965399        4.8603496170  MEMB      24              0.0000000000
      3084        24  DOPC      H14R          -10.0119582708      -19.4401730692        5.5908672543  MEMB      24              0.0000000000
      3085        24  DOPC      H14S           -8.4227885004      -19.8922928607        4.9322364351  MEMB      24              0.0000000000
      3086        24  DOPC      C215           -9.7713184809      -19.1116567518        3.4096286918  MEMB      24              0.0000000000
      3087        24  DOPC      H15R           -8.8945360537      -19.0781055818        2.7281236418  MEMB      24              0.0000000000
      3088        24  DOPC      H15S          -10.4323017500      -18.2588573836        3.1447603372  MEMB      24              0.0000000000
      3089        24  DOPC      C216          -10.5100869517      -20.4224746549        3.1073523677  MEMB      24              0.0000000000
      3090        24  DOPC      H16R          -11.5220765163      -20.3812735362        3.5639703967  MEMB      24              0.0000000000
      3091        24  DOPC      H16S          -10.0159210349      -21.3205040576        3.5359128298  MEMB      24              0.0000000000
      3092        24  DOPC      C217          -10.5442484332      -20.8009426556        1.5650637149  MEMB      24              0.0000000000
      3093        24  DOPC      H17R           -9.5260357488      -20.7453318375        1.1240759175  MEMB      24              0.0000000000
      3094        24  DOPC      H17S          -11.0704657151      -19.9524364199        1.0777714864  MEMB      24              0.0000000000
      3095        24  DOPC      C218          -11.3370074459      -22.0435907149        1.1707700813  MEMB      24              0.0000000000
      3096        24  DOPC      H18R          -11.2891234271      -22.1951134378        0.0711935981  MEMB      24              0.0000000000
      3097        24  DOPC      H18S          -12.4219624802      -21.9175128150        1.3739912031  MEMB      24              0.0000000000
      3098        24  DOPC      H18T          -10.9239918001      -22.8561304388        1.8060011052  MEMB      24              0.0000000000
      3099        24  DOPC      C33           -11.0860798924      -17.1799443632       13.0474385888  MEMB      24              0.0000000000
      3100        24  DOPC      H3X           -11.3284684665      -16.6869581205       12.0817605645  MEMB      24              0.0000000000
      3101        24  DOPC      H3Y           -11.8527304168      -16.9630116246       13.8217174477  MEMB      24              0.0000000000
      3102        24  DOPC      C34           -11.0377696604      -18.6786201038       12.8248842774  MEMB      24              0.0000000000
      3103        24  DOPC      H4X           -10.6478923539      -19.1801580962       13.7363537672  MEMB      24              0.0000000000
      3104        24  DOPC      H4Y           -10.3190664715      -18.9546520911       12.0238896461  MEMB      24              0.0000000000
      3105        24  DOPC      C35           -12.4337381184      -19.4007938986       12.6160964264  MEMB      24              0.0000000000
      3106        24  DOPC      H5X           -13.2005562444      -18.9860179909       13.3047705183  MEMB      24              0.0000000000
      3107        24  DOPC      H5Y           -12.4311357890      -20.5105572420       12.6684400455  MEMB      24              0.0000000000
      3108        24  DOPC      C36           -12.8974285545      -19.0398408080       11.1580136711  MEMB      24              0.0000000000
      3109        24  DOPC      H6X           -13.9452066337      -19.4045449886       11.0990834504  MEMB      24              0.0000000000
      3110        24  DOPC      H6Y           -12.9569047168      -17.9463004458       10.9710567563  MEMB      24              0.0000000000
      3111        24  DOPC      C37           -12.1209505084      -19.8067151490       10.0814905516  MEMB      24              0.0000000000
      3112        24  DOPC      H7X           -11.1512894749      -19.2950679484        9.9017810536  MEMB      24              0.0000000000
      3113        24  DOPC      H7Y           -11.9258739600      -20.8505085311       10.4082341630  MEMB      24              0.0000000000
      3114        24  DOPC      C38           -12.9369963900      -19.7123366294        8.7948521263  MEMB      24              0.0000000000
      3115        24  DOPC      H8X           -13.8520156542      -20.2670814545        9.0937145097  MEMB      24              0.0000000000
      3116        24  DOPC      H8Y           -12.3774173896      -20.2676617598        8.0120331048  MEMB      24              0.0000000000
      3117        24  DOPC      C39           -13.2361056777      -18.3116468544        8.2941483528  MEMB      24              0.0000000000
      3118        24  DOPC      H9X           -12.7442644006      -17.4530856421        8.7747358311  MEMB      24              0.0000000000
      3119        24  DOPC      C310          -13.9293449948      -18.0332407890        7.1786983822  MEMB      24              0.0000000000
      3120        24  DOPC      H10X          -14.2720199571      -17.0108701232        6.9611395263  MEMB      24              0.0000000000
      3121        24  DOPC      C311          -14.4538234742      -19.0535781279        6.2410233478  MEMB      24              0.0000000000
      3122        24  DOPC      H11X          -15.5262547538      -19.1882514764        6.4980750990  MEMB      24              0.0000000000
      3123        24  DOPC      H11Y          -13.9736290853      -20.0553795866        6.2297017174  MEMB      24              0.0000000000
      3124        24  DOPC      C312          -14.2555038166      -18.4417291821        4.8492094708  MEMB      24              0.0000000000
      3125        24  DOPC      H12X          -14.5648277209      -19.1703496694        4.0696254292  MEMB      24              0.0000000000
      3126        24  DOPC      H12Y          -13.1570513473      -18.2898824496        4.7809025727  MEMB      24              0.0000000000
      3127        24  DOPC      C313          -15.0871791176      -17.1786761995        4.5240294272  MEMB      24              0.0000000000
      3128        24  DOPC      H13X          -16.0913657308      -17.0904745327        4.9910960839  MEMB      24              0.0000000000
      3129        24  DOPC      H13Y          -14.5629346416      -16.3067157615        4.9703188098  MEMB      24              0.0000000000
      3130        24  DOPC      C314          -15.3117747271      -16.7547355148        3.0344456045  MEMB      24              0.0000000000
      3131        24  DOPC      H14X          -16.0632933200      -17.4577490429        2.6157427910  MEMB      24              0.0000000000
      3132        24  DOPC      H14Y          -15.7068906408      -15.7169392673        3.0000471991  MEMB      24              0.0000000000
      3133        24  DOPC      C315          -14.0683433984      -16.9067755342        2.1386806490  MEMB      24              0.0000000000
      3134        24  DOPC      H15X          -14.3336155225      -16.7269985450        1.0748985261  MEMB      24              0.0000000000
      3135        24  DOPC      H15Y          -13.8285466242      -17.9835416824        2.2705638972  MEMB      24              0.0000000000
      3136        24  DOPC      C316          -12.8216237530      -16.1951547368        2.5179185795  MEMB      24              0.0000000000
      3137        24  DOPC      H16X          -12.5975008286      -16.5568528069        3.5442043677  MEMB      24              0.0000000000
      3138        24  DOPC      H16Y          -11.9289917038      -16.5139695121        1.9383611059  MEMB      24              0.0000000000
      3139        24  DOPC      C317          -12.7882437873      -14.6369740701        2.5813403832  MEMB      24              0.0000000000
      3140        24  DOPC      H17X          -13.8155175412      -14.2511593292        2.7550552906  MEMB      24              0.0000000000
      3141        24  DOPC      H17Y          -12.2007540463      -14.3721290120        3.4863453549  MEMB      24              0.0000000000
      3142        24  DOPC      C318          -12.0930598757      -13.9130661991        1.3972976309  MEMB      24              0.0000000000
      3143        24  DOPC      H18X          -11.0575950600      -14.2739730357        1.2187477055  MEMB      24              0.0000000000
      3144        24  DOPC      H18Y          -12.6212802031      -13.9506034390        0.4206212010  MEMB      24              0.0000000000
      3145        24  DOPC      H18Z          -12.0962495837      -12.8107737788        1.5360861336  MEMB      24              0.0000000000
      3146        25  DOPE      N             -19.7082780735       13.7805235433       20.8563956738  MEMB      25              0.0000000000
      3147        25  DOPE      HN1           -20.1910590474       12.8715487962       21.0056855285  MEMB      25              0.0000000000
      3148        25  DOPE      HN2           -19.4295948038       14.1717667222       21.7788186461  MEMB      25              0.0000000000
      3149        25  DOPE      HN3           -20.3337595003       14.4405562883       20.3516882469  MEMB      25              0.0000000000
      3150        25  DOPE      C12           -18.5823787426       13.5777123630       19.8856103811  MEMB      25              0.0000000000
      3151        25  DOPE      H12A          -17.9479175840       12.8110147834       20.3795283731  MEMB      25              0.0000000000
      3152        25  DOPE      H12B          -18.0306550771       14.5401720641       19.9455546392  MEMB      25              0.0000000000
      3153        25  DOPE      C11           -19.0244100181       13.0751420241       18.4141053339  MEMB      25              0.0000000000
      3154        25  DOPE      H11A          -18.0287388079       12.8460788364       17.9776534722  MEMB      25              0.0000000000
      3155        25  DOPE      H11B          -19.4258664248       13.8634692554       17.7420234173  MEMB      25              0.0000000000
      3156        25  DOPE      P             -19.3451148999       10.5194574116       18.5342336928  MEMB      25              0.0000000000
      3157        25  DOPE      O13           -18.6697614267       10.3976390137       19.8510572694  MEMB      25              0.0000000000
      3158        25  DOPE      O14           -18.5716881237       10.1314063638       17.3109199587  MEMB      25              0.0000000000
      3159        25  DOPE      O11           -20.5533170228        9.6391257139       18.6770745199  MEMB      25              0.0000000000
      3160        25  DOPE      O12           -19.9579551778       12.0017894371       18.4706031706  MEMB      25              0.0000000000
      3161        25  DOPE      C1            -21.6176042769        9.8059936183       19.5774442131  MEMB      25              0.0000000000
      3162        25  DOPE      HA            -21.6362369265       10.7756641363       20.1193970881  MEMB      25              0.0000000000
      3163        25  DOPE      HB            -21.5118814030        9.0835474996       20.4148301536  MEMB      25              0.0000000000
      3164        25  DOPE      C2            -23.0117757709        9.5078596970       18.9409778683  MEMB      25              0.0000000000
      3165        25  DOPE      HS            -23.5321565363        8.7727990375       19.5915246924  MEMB      25              0.0000000000
      3166        25  DOPE      O21           -22.7996520849        8.9684225971       17.5832045554  MEMB      25              0.0000000000
      3167        25  DOPE      C21           -22.7099285104        7.7353544330       17.3891376887  MEMB      25              0.0000000000
      3168        25  DOPE      O22           -22.9748557522        6.8608616547       18.1301921427  MEMB      25              0.0000000000
      3169        25  DOPE      C22           -22.2562151941        7.3459165550       15.9408351453  MEMB      25              0.0000000000
      3170        25  DOPE      H2R           -23.0284066403        7.1439568723       15.1680134849  MEMB      25              0.0000000000
      3171        25  DOPE      H2S           -21.7814236123        6.3457200274       16.0330343847  MEMB      25              0.0000000000
      3172        25  DOPE      C3            -23.8824957324       10.7926601260       18.8497523393  MEMB      25              0.0000000000
      3173        25  DOPE      HX            -24.1729063499       11.0531652473       19.8900021345  MEMB      25              0.0000000000
      3174        25  DOPE      HY            -24.8027348201       10.5358350306       18.2827233364  MEMB      25              0.0000000000
      3175        25  DOPE      O31           -23.1824294096       11.9093768137       18.3002199216  MEMB      25              0.0000000000
      3176        25  DOPE      C31           -23.1284906281       12.1181317994       16.9875073309  MEMB      25              0.0000000000
      3177        25  DOPE      O32           -23.4435167047       11.3146391975       16.1598011412  MEMB      25              0.0000000000
      3178        25  DOPE      C32           -22.5488542495       13.5056313960       16.6920456714  MEMB      25              0.0000000000
      3179        25  DOPE      H2X           -23.1584315861       14.2722268307       17.2165148183  MEMB      25              0.0000000000
      3180        25  DOPE      H2Y           -21.5088228991       13.4350675791       17.0763328791  MEMB      25              0.0000000000
      3181        25  DOPE      C23           -21.0042335081        8.1496010603       15.5812326350  MEMB      25              0.0000000000
      3182        25  DOPE      H3R           -20.2390722335        8.0306813582       16.3779178641  MEMB      25              0.0000000000
      3183        25  DOPE      H3S           -21.2547004187        9.2270244564       15.4775684780  MEMB      25              0.0000000000
      3184        25  DOPE      C24           -20.3345499666        7.7023072525       14.2298796079  MEMB      25              0.0000000000
      3185        25  DOPE      H4R           -19.9778051859        6.6524221305       14.2991262356  MEMB      25              0.0000000000
      3186        25  DOPE      H4S           -19.4416647709        8.2810121117       13.9102271369  MEMB      25              0.0000000000
      3187        25  DOPE      C25           -21.3401304813        7.6445680833       13.0382907456  MEMB      25              0.0000000000
      3188        25  DOPE      H5R           -22.1485624364        6.9525320199       13.3574217853  MEMB      25              0.0000000000
      3189        25  DOPE      H5S           -20.8062385057        7.1788738596       12.1824812996  MEMB      25              0.0000000000
      3190        25  DOPE      C26           -21.9726785181        9.0040969728       12.6560987557  MEMB      25              0.0000000000
      3191        25  DOPE      H6R           -21.0846068864        9.6440776141       12.4661653357  MEMB      25              0.0000000000
      3192        25  DOPE      H6S           -22.4706395323        9.4263447491       13.5550216011  MEMB      25              0.0000000000
      3193        25  DOPE      C27           -22.9967999566        8.9445546996       11.5056829463  MEMB      25              0.0000000000
      3194        25  DOPE      H7R           -23.6597987161        8.0839421078       11.7382756256  MEMB      25              0.0000000000
      3195        25  DOPE      H7S           -22.4854896214        8.8430994655       10.5245664752  MEMB      25              0.0000000000
      3196        25  DOPE      C28           -23.7574191227       10.2855557845       11.3015341085  MEMB      25              0.0000000000
      3197        25  DOPE      H8R           -23.0263957614       11.0994964170       11.1080745865  MEMB      25              0.0000000000
      3198        25  DOPE      H8S           -24.3005192777       10.5732748481       12.2270504268  MEMB      25              0.0000000000
      3199        25  DOPE      C29           -24.8273312048       10.3563375848       10.1813796846  MEMB      25              0.0000000000
      3200        25  DOPE      H9R           -25.8528666647        9.9996589380       10.3576119841  MEMB      25              0.0000000000
      3201        25  DOPE      C210          -24.6777920699       10.8570583867        8.9340286780  MEMB      25              0.0000000000
      3202        25  DOPE      H10R          -25.5036177795       10.7281220408        8.2189152850  MEMB      25              0.0000000000
      3203        25  DOPE      C211          -23.4021545619       11.4695814721        8.2794117201  MEMB      25              0.0000000000
      3204        25  DOPE      H11R          -22.4487455835       11.4470177227        8.8493443215  MEMB      25              0.0000000000
      3205        25  DOPE      H11S          -23.5598720825       12.5488637610        8.0682331833  MEMB      25              0.0000000000
      3206        25  DOPE      C212          -23.0977683285       11.0354786847        6.7978243610  MEMB      25              0.0000000000
      3207        25  DOPE      H12R          -22.7946929475        9.9669005795        6.8224652207  MEMB      25              0.0000000000
      3208        25  DOPE      H12S          -22.2332247631       11.6199938573        6.4167370815  MEMB      25              0.0000000000
      3209        25  DOPE      C213          -24.1531160568       11.2536195438        5.7391215453  MEMB      25              0.0000000000
      3210        25  DOPE      H13R          -23.9987665404       12.2901282123        5.3701401501  MEMB      25              0.0000000000
      3211        25  DOPE      H13S          -25.1566328290       11.0966458978        6.1892713249  MEMB      25              0.0000000000
      3212        25  DOPE      C214          -24.0475474022       10.2993144010        4.5847009721  MEMB      25              0.0000000000
      3213        25  DOPE      H14R          -24.0637138640        9.2307750804        4.8884830362  MEMB      25              0.0000000000
      3214        25  DOPE      H14S          -23.0915353011       10.5327347457        4.0690686292  MEMB      25              0.0000000000
      3215        25  DOPE      C215          -25.1982639040       10.3302589316        3.5172814251  MEMB      25              0.0000000000
      3216        25  DOPE      H15R          -25.4930647153       11.3751301256        3.2813621642  MEMB      25              0.0000000000
      3217        25  DOPE      H15S          -26.0211199533        9.8314370848        4.0726245948  MEMB      25              0.0000000000
      3218        25  DOPE      C216          -24.9998765115        9.6856529214        2.1165328261  MEMB      25              0.0000000000
      3219        25  DOPE      H16R          -24.1022510904       10.2027377341        1.7150196649  MEMB      25              0.0000000000
      3220        25  DOPE      H16S          -25.8660297772        9.7538171792        1.4241070574  MEMB      25              0.0000000000
      3221        25  DOPE      C217          -24.6506827774        8.2150559442        2.4102061796  MEMB      25              0.0000000000
      3222        25  DOPE      H17R          -25.4144950349        7.8065641795        3.1059397956  MEMB      25              0.0000000000
      3223        25  DOPE      H17S          -23.5974095760        8.2529882265        2.7616292496  MEMB      25              0.0000000000
      3224        25  DOPE      C218          -24.7553733143        7.3273127808        1.1625172783  MEMB      25              0.0000000000
      3225        25  DOPE      H18R          -24.4604798804        6.3198392638        1.5263245620  MEMB      25              0.0000000000
      3226        25  DOPE      H18S          -23.9397810942        7.5015201396        0.4284992088  MEMB      25              0.0000000000
      3227        25  DOPE      H18T          -25.7650087674        7.4358294192        0.7117606753  MEMB      25              0.0000000000
      3228        25  DOPE      C33           -22.5810571644       13.8184524386       15.1293137798  MEMB      25              0.0000000000
      3229        25  DOPE      H3X           -22.2472235761       14.8672253431       14.9778168385  MEMB      25              0.0000000000
      3230        25  DOPE      H3Y           -23.6000738377       13.7237081564       14.6969375923  MEMB      25              0.0000000000
      3231        25  DOPE      C34           -21.5291693798       13.1044623956       14.2524933126  MEMB      25              0.0000000000
      3232        25  DOPE      H4X           -21.5429122251       12.0790137806       14.6797957430  MEMB      25              0.0000000000
      3233        25  DOPE      H4Y           -21.8737622995       13.1464604999       13.1971202948  MEMB      25              0.0000000000
      3234        25  DOPE      C35           -20.0411868578       13.5445238214       14.4827369453  MEMB      25              0.0000000000
      3235        25  DOPE      H5X           -19.6942783572       13.2396590695       15.4931987838  MEMB      25              0.0000000000
      3236        25  DOPE      H5Y           -20.0998647001       14.6492089373       14.3800315316  MEMB      25              0.0000000000
      3237        25  DOPE      C36           -19.0048708302       13.0287137974       13.4065818408  MEMB      25              0.0000000000
      3238        25  DOPE      H6X           -18.0502224815       13.5621919556       13.6024612787  MEMB      25              0.0000000000
      3239        25  DOPE      H6Y           -19.3920225040       13.2501879198       12.3890434874  MEMB      25              0.0000000000
      3240        25  DOPE      C37           -18.7562884879       11.5208484846       13.2900406896  MEMB      25              0.0000000000
      3241        25  DOPE      H7X           -18.1212340858       11.1571005389       14.1259319529  MEMB      25              0.0000000000
      3242        25  DOPE      H7Y           -19.7145403532       10.9700128841       13.4025334288  MEMB      25              0.0000000000
      3243        25  DOPE      C38           -17.9136804279       11.2472151970       12.0504158189  MEMB      25              0.0000000000
      3244        25  DOPE      H8X           -17.0000948431       11.8782753321       12.0884318376  MEMB      25              0.0000000000
      3245        25  DOPE      H8Y           -18.4309555051       11.6004265665       11.1328158774  MEMB      25              0.0000000000
      3246        25  DOPE      C39           -17.4890579757        9.8061117931       11.8409521777  MEMB      25              0.0000000000
      3247        25  DOPE      H9X           -17.3937693122        9.1661477941       12.7305398479  MEMB      25              0.0000000000
      3248        25  DOPE      C310          -17.2446130131        9.2606717171       10.6495817043  MEMB      25              0.0000000000
      3249        25  DOPE      H10X          -16.9453388731        8.2021802469       10.6440083541  MEMB      25              0.0000000000
      3250        25  DOPE      C311          -17.3178268418        9.8209633246        9.2219619222  MEMB      25              0.0000000000
      3251        25  DOPE      H11X          -17.6630882166       10.8726647906        9.1268846783  MEMB      25              0.0000000000
      3252        25  DOPE      H11Y          -16.2840364915        9.8554329101        8.8164865771  MEMB      25              0.0000000000
      3253        25  DOPE      C312          -18.1225926036        8.9861815467        8.1444679946  MEMB      25              0.0000000000
      3254        25  DOPE      H12X          -17.6177342499        7.9967773140        8.1217003543  MEMB      25              0.0000000000
      3255        25  DOPE      H12Y          -17.9516521357        9.5920769802        7.2290495903  MEMB      25              0.0000000000
      3256        25  DOPE      C313          -19.5997240474        8.8656066964        8.5604777533  MEMB      25              0.0000000000
      3257        25  DOPE      H13X          -19.7384650003        8.1670101270        9.4131408046  MEMB      25              0.0000000000
      3258        25  DOPE      H13Y          -19.9324329264        9.9057226488        8.7648899908  MEMB      25              0.0000000000
      3259        25  DOPE      C314          -20.4851124105        8.2794563607        7.4399880876  MEMB      25              0.0000000000
      3260        25  DOPE      H14X          -20.3669956739        8.8014127114        6.4663705478  MEMB      25              0.0000000000
      3261        25  DOPE      H14Y          -21.5854959239        8.2352910607        7.5867072088  MEMB      25              0.0000000000
      3262        25  DOPE      C315          -20.1832290834        6.8017771253        7.1959417055  MEMB      25              0.0000000000
      3263        25  DOPE      H15X          -20.3549164197        6.2136306558        8.1227255363  MEMB      25              0.0000000000
      3264        25  DOPE      H15Y          -19.1077431410        6.6213397326        6.9835896331  MEMB      25              0.0000000000
      3265        25  DOPE      C316          -20.9216863413        6.2663316188        5.9279365274  MEMB      25              0.0000000000
      3266        25  DOPE      H16X          -22.0131885773        6.4644503205        5.9887050625  MEMB      25              0.0000000000
      3267        25  DOPE      H16Y          -20.7483439515        5.1716298888        6.0047585863  MEMB      25              0.0000000000
      3268        25  DOPE      C317          -20.5287760171        6.7335355663        4.4839924603  MEMB      25              0.0000000000
      3269        25  DOPE      H17X          -20.6990515392        7.8275085328        4.3915246448  MEMB      25              0.0000000000
      3270        25  DOPE      H17Y          -19.4345294509        6.5518976478        4.4211180588  MEMB      25              0.0000000000
      3271        25  DOPE      C318          -21.4128058984        6.1343685398        3.3744807399  MEMB      25              0.0000000000
      3272        25  DOPE      H18X          -22.4862656041        6.4198568271        3.3968801114  MEMB      25              0.0000000000
      3273        25  DOPE      H18Y          -21.0068016365        6.3407379797        2.3611228941  MEMB      25              0.0000000000
      3274        25  DOPE      H18Z          -21.2998032117        5.0320666848        3.4549916815  MEMB      25              0.0000000000
      3275        26  DOPE      N              10.5904332201       19.8981678044       21.9911108613  MEMB      26              0.0000000000
      3276        26  DOPE      HN1            11.6250084189       19.8579022269       21.8929641237  MEMB      26              0.0000000000
      3277        26  DOPE      HN2            10.2907086619       20.8819588045       22.1457733771  MEMB      26              0.0000000000
      3278        26  DOPE      HN3            10.4023472669       19.3198798434       22.8347971877  MEMB      26              0.0000000000
      3279        26  DOPE      C12             9.7589338022       19.4038980063       20.8285079248  MEMB      26              0.0000000000
      3280        26  DOPE      H12A            8.7046265493       19.5151897206       21.1607299611  MEMB      26              0.0000000000
      3281        26  DOPE      H12B           10.1107375581       18.4282373278       20.4302098947  MEMB      26              0.0000000000
      3282        26  DOPE      C11            10.0770759603       20.3574162766       19.6469496035  MEMB      26              0.0000000000
      3283        26  DOPE      H11A           11.1837654818       20.4244682049       19.5757924719  MEMB      26              0.0000000000
      3284        26  DOPE      H11B            9.6701669351       21.3507859795       19.9332408419  MEMB      26              0.0000000000
      3285        26  DOPE      P               8.1057709587       20.5479539300       17.9175356255  MEMB      26              0.0000000000
      3286        26  DOPE      O13             8.2551952678       22.0041279813       17.9114613666  MEMB      26              0.0000000000
      3287        26  DOPE      O14             7.0333311356       19.8993266425       18.7378690318  MEMB      26              0.0000000000
      3288        26  DOPE      O11             8.0049203572       20.0267110222       16.4775399916  MEMB      26              0.0000000000
      3289        26  DOPE      O12             9.4521439638       19.9082735657       18.4890255995  MEMB      26              0.0000000000
      3290        26  DOPE      C1              7.6963683091       18.6457740273       16.3064626046  MEMB      26              0.0000000000
      3291        26  DOPE      HA              6.5963044079       18.4905543101       16.2971150323  MEMB      26              0.0000000000
      3292        26  DOPE      HB              8.1656145326       17.8891393447       16.9710172684  MEMB      26              0.0000000000
      3293        26  DOPE      C2              8.2613088528       18.1330449529       14.9303253202  MEMB      26              0.0000000000
      3294        26  DOPE      HS              7.9492579184       17.0747166562       14.8003780907  MEMB      26              0.0000000000
      3295        26  DOPE      O21             9.6950431489       18.3607813093       14.9126536249  MEMB      26              0.0000000000
      3296        26  DOPE      C21            10.3648780658       17.3707532372       14.3283619283  MEMB      26              0.0000000000
      3297        26  DOPE      O22             9.9556172284       16.2480606078       13.9815190983  MEMB      26              0.0000000000
      3298        26  DOPE      C22            11.7295980699       17.8601778183       14.0752017511  MEMB      26              0.0000000000
      3299        26  DOPE      H2R            12.3610457276       17.6751707266       14.9703926086  MEMB      26              0.0000000000
      3300        26  DOPE      H2S            11.7835925096       18.9397133287       13.8182800887  MEMB      26              0.0000000000
      3301        26  DOPE      C3              7.5450030446       18.9256219532       13.7834773244  MEMB      26              0.0000000000
      3302        26  DOPE      HX              6.4396190202       18.8486834180       13.8642702348  MEMB      26              0.0000000000
      3303        26  DOPE      HY              7.8020684018       18.3308309760       12.8810019841  MEMB      26              0.0000000000
      3304        26  DOPE      O31             7.9917796694       20.2899348182       13.6520909298  MEMB      26              0.0000000000
      3305        26  DOPE      C31             7.7979414716       20.8669965660       12.4447599629  MEMB      26              0.0000000000
      3306        26  DOPE      O32             7.2637967030       20.2999302847       11.5672980189  MEMB      26              0.0000000000
      3307        26  DOPE      C32             8.4569940838       22.2459142087       12.4378507562  MEMB      26              0.0000000000
      3308        26  DOPE      H2X             8.3124067038       22.6637559227       13.4570782055  MEMB      26              0.0000000000
      3309        26  DOPE      H2Y             9.5048024859       21.9829063298       12.1785335217  MEMB      26              0.0000000000
      3310        26  DOPE      C23            12.3900271862       17.0830116205       12.8197628797  MEMB      26              0.0000000000
      3311        26  DOPE      H3R            12.6604219442       16.0513316038       13.1309608857  MEMB      26              0.0000000000
      3312        26  DOPE      H3S            13.3973768844       17.5339428294       12.6923729030  MEMB      26              0.0000000000
      3313        26  DOPE      C24            11.4601159172       17.1300702983       11.5878678451  MEMB      26              0.0000000000
      3314        26  DOPE      H4R            11.1917954541       18.2081291218       11.5985605827  MEMB      26              0.0000000000
      3315        26  DOPE      H4S            10.5782809622       16.4547138306       11.6119906996  MEMB      26              0.0000000000
      3316        26  DOPE      C25            12.1968624226       16.6596884942       10.2398954311  MEMB      26              0.0000000000
      3317        26  DOPE      H5R            12.4063869987       15.5692491484       10.2768045331  MEMB      26              0.0000000000
      3318        26  DOPE      H5S            13.1886860357       17.1600733862       10.2249995945  MEMB      26              0.0000000000
      3319        26  DOPE      C26            11.4847613797       17.1565868328        9.0357720927  MEMB      26              0.0000000000
      3320        26  DOPE      H6R            11.3131252809       18.2515740446        9.1123546687  MEMB      26              0.0000000000
      3321        26  DOPE      H6S            10.4460629358       16.7623848191        9.0301623391  MEMB      26              0.0000000000
      3322        26  DOPE      C27            12.1674901923       16.8520390324        7.6420494988  MEMB      26              0.0000000000
      3323        26  DOPE      H7R            11.4784312152       16.9898893190        6.7815169204  MEMB      26              0.0000000000
      3324        26  DOPE      H7S            12.5049133426       15.7968975909        7.7265660914  MEMB      26              0.0000000000
      3325        26  DOPE      C28            13.4282175904       17.7080697232        7.3634294530  MEMB      26              0.0000000000
      3326        26  DOPE      H8R            13.9909866830       17.3744687135        6.4654740836  MEMB      26              0.0000000000
      3327        26  DOPE      H8S            14.2262798137       17.4823691558        8.1026700119  MEMB      26              0.0000000000
      3328        26  DOPE      C29            13.0153256922       19.1910286392        7.1733219458  MEMB      26              0.0000000000
      3329        26  DOPE      H9R            12.2716939933       19.5247435499        7.9120002640  MEMB      26              0.0000000000
      3330        26  DOPE      C210           13.4827989693       20.0098703723        6.2627648104  MEMB      26              0.0000000000
      3331        26  DOPE      H10R           13.0162627144       21.0003807615        6.1567785665  MEMB      26              0.0000000000
      3332        26  DOPE      C211           14.4755158866       19.7169535452        5.2100384143  MEMB      26              0.0000000000
      3333        26  DOPE      H11R           15.0862710095       18.8416351726        5.5184488658  MEMB      26              0.0000000000
      3334        26  DOPE      H11S           15.1655291634       20.5381033893        4.9203563357  MEMB      26              0.0000000000
      3335        26  DOPE      C212           13.8414810001       19.3684063792        3.8377536017  MEMB      26              0.0000000000
      3336        26  DOPE      H12R           13.3904158917       18.3626466567        3.9767090805  MEMB      26              0.0000000000
      3337        26  DOPE      H12S           14.7108790068       19.0882646934        3.2053078887  MEMB      26              0.0000000000
      3338        26  DOPE      C213           12.8714712439       20.3037919656        3.1334415354  MEMB      26              0.0000000000
      3339        26  DOPE      H13R           13.6295259734       21.0847525260        2.9103401638  MEMB      26              0.0000000000
      3340        26  DOPE      H13S           12.1035582720       20.7046613988        3.8290947815  MEMB      26              0.0000000000
      3341        26  DOPE      C214           12.1906721173       19.8485971692        1.8682052191  MEMB      26              0.0000000000
      3342        26  DOPE      H14R           11.6416485026       20.7434971948        1.5048203859  MEMB      26              0.0000000000
      3343        26  DOPE      H14S           11.4653074000       19.0367633698        2.0897749992  MEMB      26              0.0000000000
      3344        26  DOPE      C215           13.1358331031       19.2902859893        0.7254611872  MEMB      26              0.0000000000
      3345        26  DOPE      H15R           13.6049335219       18.4099820538        1.2146746094  MEMB      26              0.0000000000
      3346        26  DOPE      H15S           13.8843111981       20.0538150698        0.4235909299  MEMB      26              0.0000000000
      3347        26  DOPE      C216           12.3695204671       18.7318810238       -0.5563494331  MEMB      26              0.0000000000
      3348        26  DOPE      H16R           11.3417723926       18.4031567951       -0.2917843414  MEMB      26              0.0000000000
      3349        26  DOPE      H16S           13.0066216055       17.8927065297       -0.9087847531  MEMB      26              0.0000000000
      3350        26  DOPE      C217           12.1101593869       19.8535461230       -1.6302974299  MEMB      26              0.0000000000
      3351        26  DOPE      H17R           11.9280501073       20.7933725379       -1.0664853201  MEMB      26              0.0000000000
      3352        26  DOPE      H17S           11.2524658767       19.5943291863       -2.2871757954  MEMB      26              0.0000000000
      3353        26  DOPE      C218           13.3972748451       19.9506861709       -2.5215424371  MEMB      26              0.0000000000
      3354        26  DOPE      H18R           13.1941868685       20.6811733980       -3.3336169887  MEMB      26              0.0000000000
      3355        26  DOPE      H18S           13.5997624637       18.9533442593       -2.9672201199  MEMB      26              0.0000000000
      3356        26  DOPE      H18T           14.2172024353       20.3133199211       -1.8653894954  MEMB      26              0.0000000000
      3357        26  DOPE      C33             7.9401083527       23.2008787635       11.2799772618  MEMB      26              0.0000000000
      3358        26  DOPE      H3X             8.2446107564       24.1777271349       11.7128356226  MEMB      26              0.0000000000
      3359        26  DOPE      H3Y             6.8323809744       23.1892414386       11.1955647153  MEMB      26              0.0000000000
      3360        26  DOPE      C34             8.7206782749       23.0522154687        9.9260058279  MEMB      26              0.0000000000
      3361        26  DOPE      H4X             9.8208187501       23.1217643569       10.0644794675  MEMB      26              0.0000000000
      3362        26  DOPE      H4Y             8.3327354830       22.1081099075        9.4872734699  MEMB      26              0.0000000000
      3363        26  DOPE      C35             8.4754982020       24.2134601400        9.0017335312  MEMB      26              0.0000000000
      3364        26  DOPE      H5X             8.8815399605       25.2028929005        9.3025212275  MEMB      26              0.0000000000
      3365        26  DOPE      H5Y             7.3683314346       24.3012602290        9.0299050059  MEMB      26              0.0000000000
      3366        26  DOPE      C36             8.8826159191       24.0570765123        7.5250778471  MEMB      26              0.0000000000
      3367        26  DOPE      H6X             8.3520755747       24.8693891175        6.9837871850  MEMB      26              0.0000000000
      3368        26  DOPE      H6Y             8.4531201889       23.1007667875        7.1572108172  MEMB      26              0.0000000000
      3369        26  DOPE      C37            10.4345583894       24.2233500281        7.2999173871  MEMB      26              0.0000000000
      3370        26  DOPE      H7X            10.7123757203       25.1436959780        7.8567848834  MEMB      26              0.0000000000
      3371        26  DOPE      H7Y            10.9404419137       23.4446023178        7.9097990353  MEMB      26              0.0000000000
      3372        26  DOPE      C38            10.8986491242       24.3205044383        5.8420422852  MEMB      26              0.0000000000
      3373        26  DOPE      H8X            11.9449161531       24.6414447170        6.0334672776  MEMB      26              0.0000000000
      3374        26  DOPE      H8Y            10.3352419355       25.1436250663        5.3527927120  MEMB      26              0.0000000000
      3375        26  DOPE      C39            10.9086536976       23.0592191390        5.0845029324  MEMB      26              0.0000000000
      3376        26  DOPE      H9X            11.3164404027       22.2018292432        5.6400140568  MEMB      26              0.0000000000
      3377        26  DOPE      C310           10.3597548855       22.7929691455        3.8539770763  MEMB      26              0.0000000000
      3378        26  DOPE      H10X           10.2720852910       21.7455931152        3.5294502896  MEMB      26              0.0000000000
      3379        26  DOPE      C311            9.6947857796       23.7811320801        2.9989370499  MEMB      26              0.0000000000
      3380        26  DOPE      H11X            9.9686722742       24.8415659218        3.1854483027  MEMB      26              0.0000000000
      3381        26  DOPE      H11Y            9.9718202895       23.5041280023        1.9593005141  MEMB      26              0.0000000000
      3382        26  DOPE      C312            8.1808341030       23.6137937627        3.2752375825  MEMB      26              0.0000000000
      3383        26  DOPE      H12X            7.8598028552       24.0224825374        2.2932832676  MEMB      26              0.0000000000
      3384        26  DOPE      H12Y            7.8484524092       24.3381029372        4.0493303433  MEMB      26              0.0000000000
      3385        26  DOPE      C313            7.5633343544       22.2346481964        3.4958369921  MEMB      26              0.0000000000
      3386        26  DOPE      H13X            7.9745490375       21.8720988472        4.4621608143  MEMB      26              0.0000000000
      3387        26  DOPE      H13Y            6.4539351404       22.2940996706        3.4913979640  MEMB      26              0.0000000000
      3388        26  DOPE      C314            7.7736555643       21.2787998052        2.2619889899  MEMB      26              0.0000000000
      3389        26  DOPE      H14X            8.8312533083       20.9438841545        2.2016594886  MEMB      26              0.0000000000
      3390        26  DOPE      H14Y            7.4725333149       21.7724291995        1.3133184713  MEMB      26              0.0000000000
      3391        26  DOPE      C315            6.9724729223       19.9290041445        2.3259518150  MEMB      26              0.0000000000
      3392        26  DOPE      H15X            5.9404850903       20.3356515045        2.3888799735  MEMB      26              0.0000000000
      3393        26  DOPE      H15Y            7.2997320983       19.3417849406        3.2104826464  MEMB      26              0.0000000000
      3394        26  DOPE      C316            7.0600948938       19.0740126826        1.0667075389  MEMB      26              0.0000000000
      3395        26  DOPE      H16X            8.1114736773       19.1624276854        0.7187036125  MEMB      26              0.0000000000
      3396        26  DOPE      H16Y            6.4484201045       19.3949264223        0.1965410162  MEMB      26              0.0000000000
      3397        26  DOPE      C317            6.7839533532       17.6022173550        1.2785111386  MEMB      26              0.0000000000
      3398        26  DOPE      H17X            7.5535256828       17.1559376100        1.9440290139  MEMB      26              0.0000000000
      3399        26  DOPE      H17Y            5.7898512016       17.4265445236        1.7424288326  MEMB      26              0.0000000000
      3400        26  DOPE      C318            6.7799441530       16.7541904251       -0.0693477372  MEMB      26              0.0000000000
      3401        26  DOPE      H18X            7.7380390216       16.8157624836       -0.6284401306  MEMB      26              0.0000000000
      3402        26  DOPE      H18Y            6.5120169244       15.6979460039        0.1471785734  MEMB      26              0.0000000000
      3403        26  DOPE      H18Z            5.9699875678       17.1209719106       -0.7355018173  MEMB      26              0.0000000000
      3404        27  DOPE      N              16.6397857929       16.8119017443       21.8687216281  MEMB      27              0.0000000000
      3405        27  DOPE      HN1            15.8358743936       16.3684145667       22.3572352306  MEMB      27              0.0000000000
      3406        27  DOPE      HN2            17.1616048391       16.0832332512       21.3411355077  MEMB      27              0.0000000000
      3407        27  DOPE      HN3            17.3121900389       17.2255582984       22.5457450196  MEMB      27              0.0000000000
      3408        27  DOPE      C12            16.1009486017       17.8345486468       20.9639792295  MEMB      27              0.0000000000
      3409        27  DOPE      H12A           16.9543704076       18.3809346408       20.5085075912  MEMB      27              0.0000000000
      3410        27  DOPE      H12B           15.3863629908       18.4817753215       21.5160534895  MEMB      27              0.0000000000
      3411        27  DOPE      C11            15.3081824964       17.0839131328       19.8355727193  MEMB      27              0.0000000000
      3412        27  DOPE      H11A           14.7306866957       17.9058637163       19.3610024487  MEMB      27              0.0000000000
      3413        27  DOPE      H11B           14.4372921002       16.4888103026       20.1844617076  MEMB      27              0.0000000000
      3414        27  DOPE      P              15.5662048970       15.4556690298       17.8388144029  MEMB      27              0.0000000000
      3415        27  DOPE      O13            14.6351564092       16.1145532483       16.9408112453  MEMB      27              0.0000000000
      3416        27  DOPE      O14            15.0850128269       14.2680064249       18.5706598850  MEMB      27              0.0000000000
      3417        27  DOPE      O11            16.9730107519       15.0819355493       17.0841824164  MEMB      27              0.0000000000
      3418        27  DOPE      O12            16.2096974633       16.4810298195       18.8972584761  MEMB      27              0.0000000000
      3419        27  DOPE      C1             17.9598042461       14.4199419188       17.8289163335  MEMB      27              0.0000000000
      3420        27  DOPE      HA             17.5403198765       13.6011608506       18.4517738688  MEMB      27              0.0000000000
      3421        27  DOPE      HB             18.4708588838       15.1426348039       18.5003768967  MEMB      27              0.0000000000
      3422        27  DOPE      C2             19.0470665042       13.9022190591       16.8224207806  MEMB      27              0.0000000000
      3423        27  DOPE      HS             19.9871890292       13.6985136768       17.3782936575  MEMB      27              0.0000000000
      3424        27  DOPE      O21            19.2750596884       14.8565540367       15.7109087370  MEMB      27              0.0000000000
      3425        27  DOPE      C21            20.0581113377       15.8314672956       15.8954974295  MEMB      27              0.0000000000
      3426        27  DOPE      O22            20.6236896367       16.0674376148       16.9641210405  MEMB      27              0.0000000000
      3427        27  DOPE      C22            20.1383300165       16.7208464911       14.6753822539  MEMB      27              0.0000000000
      3428        27  DOPE      H2R            21.1841482665       17.0661046095       14.5291556797  MEMB      27              0.0000000000
      3429        27  DOPE      H2S            19.4477466299       17.5891999915       14.7335018408  MEMB      27              0.0000000000
      3430        27  DOPE      C3             18.5611580097       12.4762563247       16.2400270615  MEMB      27              0.0000000000
      3431        27  DOPE      HX             18.5081177410       11.7836990592       17.1071326503  MEMB      27              0.0000000000
      3432        27  DOPE      HY             19.3172053835       12.1111065948       15.5124428808  MEMB      27              0.0000000000
      3433        27  DOPE      O31            17.3414745074       12.6995767257       15.6890965743  MEMB      27              0.0000000000
      3434        27  DOPE      C31            17.2776492588       12.7145068697       14.3555758044  MEMB      27              0.0000000000
      3435        27  DOPE      O32            18.2276602193       12.8038757753       13.5297066726  MEMB      27              0.0000000000
      3436        27  DOPE      C32            15.7301445741       12.8018156326       13.9578631997  MEMB      27              0.0000000000
      3437        27  DOPE      H2X            15.2958717404       11.8338949801       13.6279275079  MEMB      27              0.0000000000
      3438        27  DOPE      H2Y            15.0575999498       13.1837914718       14.7554215604  MEMB      27              0.0000000000
      3439        27  DOPE      C23            19.7560071816       15.9844855311       13.3319540372  MEMB      27              0.0000000000
      3440        27  DOPE      H3R            18.6942998353       15.6641356948       13.3988459971  MEMB      27              0.0000000000
      3441        27  DOPE      H3S            20.3364137989       15.0448940366       13.2110545496  MEMB      27              0.0000000000
      3442        27  DOPE      C24            19.9722571216       16.9713072290       12.1027856761  MEMB      27              0.0000000000
      3443        27  DOPE      H4R            20.9334072687       17.5284148788       12.1146847709  MEMB      27              0.0000000000
      3444        27  DOPE      H4S            19.2965560720       17.8458794725       12.2162406442  MEMB      27              0.0000000000
      3445        27  DOPE      C25            19.8879278184       16.2268566866       10.7316877572  MEMB      27              0.0000000000
      3446        27  DOPE      H5R            20.1209056621       16.9899150619        9.9585230452  MEMB      27              0.0000000000
      3447        27  DOPE      H5S            18.8295595420       15.8945731547       10.6703263525  MEMB      27              0.0000000000
      3448        27  DOPE      C26            20.9064067663       15.1116977769       10.5061778038  MEMB      27              0.0000000000
      3449        27  DOPE      H6R            21.4899104924       15.0375017102       11.4486950265  MEMB      27              0.0000000000
      3450        27  DOPE      H6S            21.6823320772       15.3447846284        9.7459597119  MEMB      27              0.0000000000
      3451        27  DOPE      C27            20.3149882050       13.7594205381       10.1600388971  MEMB      27              0.0000000000
      3452        27  DOPE      H7R            19.4372586119       13.6939868658       10.8379985289  MEMB      27              0.0000000000
      3453        27  DOPE      H7S            21.0413456476       13.0297961820       10.5776200471  MEMB      27              0.0000000000
      3454        27  DOPE      C28            19.8438919370       13.6575839994        8.6934912998  MEMB      27              0.0000000000
      3455        27  DOPE      H8R            20.5860881520       13.9978990748        7.9400655150  MEMB      27              0.0000000000
      3456        27  DOPE      H8S            18.9947948810       14.3420737374        8.4817623790  MEMB      27              0.0000000000
      3457        27  DOPE      C29            19.5994999116       12.1521891105        8.3764647286  MEMB      27              0.0000000000
      3458        27  DOPE      H9R            20.4139469487       11.4135509114        8.4094720435  MEMB      27              0.0000000000
      3459        27  DOPE      C210           18.3480108759       11.6666490221        8.3058027769  MEMB      27              0.0000000000
      3460        27  DOPE      H10R           18.1221573653       10.5968474763        8.1853245692  MEMB      27              0.0000000000
      3461        27  DOPE      C211           17.0970580819       12.4825728182        8.5215672626  MEMB      27              0.0000000000
      3462        27  DOPE      H11R           17.3160743097       13.3231144916        9.2142731578  MEMB      27              0.0000000000
      3463        27  DOPE      H11S           16.3859466968       11.8581765408        9.1036075071  MEMB      27              0.0000000000
      3464        27  DOPE      C212           16.2771181467       12.8867886025        7.2425404682  MEMB      27              0.0000000000
      3465        27  DOPE      H12R           17.0368606963       13.4402044415        6.6502206072  MEMB      27              0.0000000000
      3466        27  DOPE      H12S           15.4514549075       13.5712510273        7.5325615524  MEMB      27              0.0000000000
      3467        27  DOPE      C213           15.8590741629       11.6832042523        6.3859882027  MEMB      27              0.0000000000
      3468        27  DOPE      H13R           15.5294894733       10.7861308330        6.9525164682  MEMB      27              0.0000000000
      3469        27  DOPE      H13S           16.7985312537       11.3731055942        5.8804380603  MEMB      27              0.0000000000
      3470        27  DOPE      C214           14.8256361263       12.0345573630        5.2934354602  MEMB      27              0.0000000000
      3471        27  DOPE      H14R           13.8848895704       12.1270764229        5.8771801318  MEMB      27              0.0000000000
      3472        27  DOPE      H14S           14.6751915848       11.2133052939        4.5604748874  MEMB      27              0.0000000000
      3473        27  DOPE      C215           15.0959258745       13.3924918831        4.6557996820  MEMB      27              0.0000000000
      3474        27  DOPE      H15R           16.0710701210       13.3628361879        4.1242591427  MEMB      27              0.0000000000
      3475        27  DOPE      H15S           15.2707214420       14.1824555481        5.4171954111  MEMB      27              0.0000000000
      3476        27  DOPE      C216           14.0262327579       13.7195266294        3.5781943740  MEMB      27              0.0000000000
      3477        27  DOPE      H16R           14.1038046286       14.7187027371        3.0986628628  MEMB      27              0.0000000000
      3478        27  DOPE      H16S           13.0498569166       13.7807643753        4.1047508165  MEMB      27              0.0000000000
      3479        27  DOPE      C217           14.0680362584       12.7756427786        2.4164453153  MEMB      27              0.0000000000
      3480        27  DOPE      H17R           14.9888299242       12.1669946290        2.5429670281  MEMB      27              0.0000000000
      3481        27  DOPE      H17S           14.2671346924       13.2447327555        1.4292082561  MEMB      27              0.0000000000
      3482        27  DOPE      C218           12.7697297227       12.0085570169        2.2991907209  MEMB      27              0.0000000000
      3483        27  DOPE      H18R           11.9974643547       12.7448078530        1.9895747875  MEMB      27              0.0000000000
      3484        27  DOPE      H18S           12.3297647693       11.6092049417        3.2379502698  MEMB      27              0.0000000000
      3485        27  DOPE      H18T           12.9318451806       11.1614833313        1.5988303925  MEMB      27              0.0000000000
      3486        27  DOPE      C33            15.5781233668       13.7187425646       12.7445559551  MEMB      27              0.0000000000
      3487        27  DOPE      H3X            14.6759854837       13.3930388819       12.1838553726  MEMB      27              0.0000000000
      3488        27  DOPE      H3Y            16.4606514253       13.4811441206       12.1128821442  MEMB      27              0.0000000000
      3489        27  DOPE      C34            15.4021403983       15.1943163107       12.9356285501  MEMB      27              0.0000000000
      3490        27  DOPE      H4X            14.3308677374       15.4376766393       13.1013743065  MEMB      27              0.0000000000
      3491        27  DOPE      H4Y            15.8751515363       15.4999296082       13.8933249728  MEMB      27              0.0000000000
      3492        27  DOPE      C35            15.8395116253       16.0489283423       11.7678273645  MEMB      27              0.0000000000
      3493        27  DOPE      H5X            16.9451905790       16.1566683238       11.7541520877  MEMB      27              0.0000000000
      3494        27  DOPE      H5Y            15.5729816570       17.1090576833       11.9663437313  MEMB      27              0.0000000000
      3495        27  DOPE      C36            15.2708392470       15.6238867729       10.3771303842  MEMB      27              0.0000000000
      3496        27  DOPE      H6X            14.2005152390       15.3698911796       10.5327381593  MEMB      27              0.0000000000
      3497        27  DOPE      H6Y            15.7218077484       14.6326782466       10.1570068054  MEMB      27              0.0000000000
      3498        27  DOPE      C37            15.6107165608       16.5871116426        9.2646571779  MEMB      27              0.0000000000
      3499        27  DOPE      H7X            15.6915542959       17.6189819371        9.6684275299  MEMB      27              0.0000000000
      3500        27  DOPE      H7Y            16.6598556461       16.5151133338        8.9062660071  MEMB      27              0.0000000000
      3501        27  DOPE      C38            14.5972009488       16.7086404359        8.0753181144  MEMB      27              0.0000000000
      3502        27  DOPE      H8X            13.5376412155       16.7049345888        8.4094444106  MEMB      27              0.0000000000
      3503        27  DOPE      H8Y            14.6226579411       15.7957227965        7.4426624352  MEMB      27              0.0000000000
      3504        27  DOPE      C39            14.9281754940       17.9163159115        7.2633705580  MEMB      27              0.0000000000
      3505        27  DOPE      H9X            14.5077284490       18.8569729336        7.6485825169  MEMB      27              0.0000000000
      3506        27  DOPE      C310           15.7053825049       18.0775028951        6.1764296780  MEMB      27              0.0000000000
      3507        27  DOPE      H10X           15.7354820194       18.9400928188        5.4944971255  MEMB      27              0.0000000000
      3508        27  DOPE      C311           16.5108041106       17.0124792184        5.5013214658  MEMB      27              0.0000000000
      3509        27  DOPE      H11X           16.0879563721       15.9881991860        5.5811408594  MEMB      27              0.0000000000
      3510        27  DOPE      H11Y           16.3706468683       17.2799688763        4.4321507326  MEMB      27              0.0000000000
      3511        27  DOPE      C312           17.9518611400       16.9979674457        5.9493015492  MEMB      27              0.0000000000
      3512        27  DOPE      H12X           17.9671707048       17.1280806686        7.0525504386  MEMB      27              0.0000000000
      3513        27  DOPE      H12Y           18.5461887269       17.8859179054        5.6449332556  MEMB      27              0.0000000000
      3514        27  DOPE      C313           18.7383480754       15.7016154927        5.6372018115  MEMB      27              0.0000000000
      3515        27  DOPE      H13X           19.5161336607       15.5686290817        6.4193048970  MEMB      27              0.0000000000
      3516        27  DOPE      H13Y           18.1200543724       14.7867617660        5.7599867996  MEMB      27              0.0000000000
      3517        27  DOPE      C314           19.3207454217       15.6010380020        4.1804499262  MEMB      27              0.0000000000
      3518        27  DOPE      H14X           20.0328114875       16.4441254027        4.0520509506  MEMB      27              0.0000000000
      3519        27  DOPE      H14Y           18.4950706065       15.7620200958        3.4547313245  MEMB      27              0.0000000000
      3520        27  DOPE      C315           20.2131546442       14.3566932297        3.9058555954  MEMB      27              0.0000000000
      3521        27  DOPE      H15X           20.9022257031       14.2956137189        4.7752067163  MEMB      27              0.0000000000
      3522        27  DOPE      H15Y           20.9306574521       14.5048267198        3.0706505181  MEMB      27              0.0000000000
      3523        27  DOPE      C316           19.4687910272       13.0821413844        3.6649361171  MEMB      27              0.0000000000
      3524        27  DOPE      H16X           18.8959038168       12.8495798111        4.5879944519  MEMB      27              0.0000000000
      3525        27  DOPE      H16Y           20.1252503736       12.2025116686        3.4927938464  MEMB      27              0.0000000000
      3526        27  DOPE      C317           18.3520165094       13.1498791753        2.5676053660  MEMB      27              0.0000000000
      3527        27  DOPE      H17X           17.7702993175       12.2068876292        2.6494162006  MEMB      27              0.0000000000
      3528        27  DOPE      H17Y           17.6674785851       13.9638202702        2.8888982616  MEMB      27              0.0000000000
      3529        27  DOPE      C318           18.9542801630       13.6093160436        1.1937222438  MEMB      27              0.0000000000
      3530        27  DOPE      H18X           18.4705891159       13.3076478756        0.2401183008  MEMB      27              0.0000000000
      3531        27  DOPE      H18Y           19.0337112845       14.7153278459        1.2626397809  MEMB      27              0.0000000000
      3532        27  DOPE      H18Z           19.9213422635       13.0654754769        1.1358522758  MEMB      27              0.0000000000
      3533        28  CHL1      C3             22.8396251877        3.1795984560       17.4202000000  MEMB      28              0.0000000000
      3534        28  CHL1      H3             23.9000695579        3.3385536153       17.7109000000  MEMB      28              0.0000000000
      3535        28  CHL1      O3             22.1036296123        3.0089775040       18.5798000000  MEMB      28              0.0000000000
      3536        28  CHL1      H3'            22.4569394815        2.3154774053       19.1417800000  MEMB      28              0.0000000000
      3537        28  CHL1      C4             22.3729244899        4.4684334068       16.6495600000  MEMB      28              0.0000000000
      3538        28  CHL1      H4A            21.2870483664        4.4574558387       16.4148700000  MEMB      28              0.0000000000
      3539        28  CHL1      H4B            22.5260400608        5.2872587152       17.3846800000  MEMB      28              0.0000000000
      3540        28  CHL1      C5             23.1778926240        4.5161395340       15.3440200000  MEMB      28              0.0000000000
      3541        28  CHL1      C6             23.7661745214        5.6731090156       15.0385400000  MEMB      28              0.0000000000
      3542        28  CHL1      H6             23.6301345972        6.5463534216       15.6934700000  MEMB      28              0.0000000000
      3543        28  CHL1      C7             24.6476038203        5.8125823824       13.7619200000  MEMB      28              0.0000000000
      3544        28  CHL1      H7A            24.4663792378        6.8434684443       13.3894300000  MEMB      28              0.0000000000
      3545        28  CHL1      H7B            25.7198229769        5.7687182049       14.0495300000  MEMB      28              0.0000000000
      3546        28  CHL1      C8             24.3359313146        4.7707432517       12.7437700000  MEMB      28              0.0000000000
      3547        28  CHL1      H8             23.3350583041        5.0615501972       12.3590600000  MEMB      28              0.0000000000
      3548        28  CHL1      C14            25.3876825929        4.7005438136       11.6465100000  MEMB      28              0.0000000000
      3549        28  CHL1      H14            26.2539882324        4.2399679690       12.1677800000  MEMB      28              0.0000000000
      3550        28  CHL1      C15            25.8008821470        6.0785949316       11.0678900000  MEMB      28              0.0000000000
      3551        28  CHL1      H15A           24.9289572807        6.7441889277       10.8916500000  MEMB      28              0.0000000000
      3552        28  CHL1      H15B           26.4640199810        6.6719999657       11.7330500000  MEMB      28              0.0000000000
      3553        28  CHL1      C16            26.4021140082        5.7257926879        9.6814700000  MEMB      28              0.0000000000
      3554        28  CHL1      H16A           25.8164786342        6.2876978326        8.9227800000  MEMB      28              0.0000000000
      3555        28  CHL1      H16B           27.4022007988        6.2087839037        9.7108000000  MEMB      28              0.0000000000
      3556        28  CHL1      C17            26.2217802802        4.2031698994        9.5312500000  MEMB      28              0.0000000000
      3557        28  CHL1      H17            27.0237412459        3.7546934741       10.1558000000  MEMB      28              0.0000000000
      3558        28  CHL1      C13            24.9694294115        3.8827436395       10.4604700000  MEMB      28              0.0000000000
      3559        28  CHL1      C18            23.6907760692        4.4012997667        9.8288600000  MEMB      28              0.0000000000
      3560        28  CHL1      H18A           23.7995855597        5.4782341236        9.5784800000  MEMB      28              0.0000000000
      3561        28  CHL1      H18B           23.4815300465        3.8625359381        8.8800400000  MEMB      28              0.0000000000
      3562        28  CHL1      H18C           22.8543797777        4.0919104008       10.4914600000  MEMB      28              0.0000000000
      3563        28  CHL1      C12            24.8692987859        2.3827676538       11.0063000000  MEMB      28              0.0000000000
      3564        28  CHL1      H12A           24.7068846480        1.6136136495       10.2212300000  MEMB      28              0.0000000000
      3565        28  CHL1      H12B           25.8564174136        2.1409942780       11.4551500000  MEMB      28              0.0000000000
      3566        28  CHL1      C11            23.8704691798        2.2853173385       12.1110100000  MEMB      28              0.0000000000
      3567        28  CHL1      H11A           22.8675408021        2.4310424847       11.6558100000  MEMB      28              0.0000000000
      3568        28  CHL1      H11B           23.8241248916        1.3360798014       12.6864400000  MEMB      28              0.0000000000
      3569        28  CHL1      C9             24.1361232894        3.2588114055       13.3181700000  MEMB      28              0.0000000000
      3570        28  CHL1      H9             25.1449980103        2.9871750608       13.6959600000  MEMB      28              0.0000000000
      3571        28  CHL1      C10            23.1670430357        3.2443560794       14.4897200000  MEMB      28              0.0000000000
      3572        28  CHL1      C19            21.7327815805        3.2142415151       13.8689700000  MEMB      28              0.0000000000
      3573        28  CHL1      H19A           21.5151607378        4.0664659629       13.1902400000  MEMB      28              0.0000000000
      3574        28  CHL1      H19B           21.6549967264        2.2188235837       13.3817000000  MEMB      28              0.0000000000
      3575        28  CHL1      H19C           20.8815266263        3.2129623067       14.5828900000  MEMB      28              0.0000000000
      3576        28  CHL1      C1             23.3680406941        1.9709987468       15.3260000000  MEMB      28              0.0000000000
      3577        28  CHL1      H1A            23.1676396597        1.1308876463       14.6271600000  MEMB      28              0.0000000000
      3578        28  CHL1      H1B            24.4479521698        2.0227269305       15.5818000000  MEMB      28              0.0000000000
      3579        28  CHL1      C2             22.5130187887        1.9697435935       16.6104700000  MEMB      28              0.0000000000
      3580        28  CHL1      H2A            22.6603213555        1.0024248271       17.1367000000  MEMB      28              0.0000000000
      3581        28  CHL1      H2B            21.4683372015        1.9571991239       16.2325800000  MEMB      28              0.0000000000
      3582        28  CHL1      C20            26.2923789495        3.6907745536        8.0885800000  MEMB      28              0.0000000000
      3583        28  CHL1      H20            25.4867246582        4.2276570203        7.5436000000  MEMB      28              0.0000000000
      3584        28  CHL1      C21            26.0321257671        2.2159799335        7.9422400000  MEMB      28              0.0000000000
      3585        28  CHL1      H21A           26.7697424440        1.5661041678        8.4598500000  MEMB      28              0.0000000000
      3586        28  CHL1      H21B           26.2237863797        1.8818054349        6.9001700000  MEMB      28              0.0000000000
      3587        28  CHL1      H21C           25.0193845199        1.8954893111        8.2677600000  MEMB      28              0.0000000000
      3588        28  CHL1      C22            27.6722837987        4.1150171484        7.5150800000  MEMB      28              0.0000000000
      3589        28  CHL1      H22A           28.0620457134        5.1298680467        7.7441700000  MEMB      28              0.0000000000
      3590        28  CHL1      H22B           28.4860035752        3.5332291314        7.9985100000  MEMB      28              0.0000000000
      3591        28  CHL1      C23            27.9122554061        3.9593265044        5.9485300000  MEMB      28              0.0000000000
      3592        28  CHL1      H23A           28.9664088120        4.2831046193        5.8134100000  MEMB      28              0.0000000000
      3593        28  CHL1      H23B           27.9025005958        2.8803654216        5.6838200000  MEMB      28              0.0000000000
      3594        28  CHL1      C24            26.9978560592        4.8013068658        5.1314400000  MEMB      28              0.0000000000
      3595        28  CHL1      H24A           25.9675069532        4.5723165155        5.4782400000  MEMB      28              0.0000000000
      3596        28  CHL1      H24B           27.2245595493        5.8500245418        5.4197200000  MEMB      28              0.0000000000
      3597        28  CHL1      C25            26.9713707033        4.5251274478        3.5825100000  MEMB      28              0.0000000000
      3598        28  CHL1      H25            26.8094619817        3.4335595621        3.4537500000  MEMB      28              0.0000000000
      3599        28  CHL1      C26            25.8272937587        5.3178916777        2.8860600000  MEMB      28              0.0000000000
      3600        28  CHL1      H26A           24.8482671561        5.1069791905        3.3670500000  MEMB      28              0.0000000000
      3601        28  CHL1      H26B           26.0409367952        6.4019867356        3.0018800000  MEMB      28              0.0000000000
      3602        28  CHL1      H26C           25.8710904115        5.0289955444        1.8141800000  MEMB      28              0.0000000000
      3603        28  CHL1      C27            28.2565657600        4.8954204614        2.7631500000  MEMB      28              0.0000000000
      3604        28  CHL1      H27A           28.6024079375        5.9394539775        2.9203500000  MEMB      28              0.0000000000
      3605        28  CHL1      H27B           29.0587251378        4.2315603665        3.1506500000  MEMB      28              0.0000000000
      3606        28  CHL1      H27C           28.0120082088        4.6649976128        1.7041800000  MEMB      28              0.0000000000
      3607        29  CHL1      C3             22.1255563386       -5.4197057016       17.3051250000  MEMB      29              0.0000000000
      3608        29  CHL1      H3             23.0213818904       -4.8523134942       16.9736450000  MEMB      29              0.0000000000
      3609        29  CHL1      O3             21.9293778614       -5.4609594584       18.6948750000  MEMB      29              0.0000000000
      3610        29  CHL1      H3'            22.6707613484       -5.8860824779       19.1321550000  MEMB      29              0.0000000000
      3611        29  CHL1      C4             20.9209856857       -4.8839161550       16.5735050000  MEMB      29              0.0000000000
      3612        29  CHL1      H4A            20.1220781213       -5.5360947612       16.9867050000  MEMB      29              0.0000000000
      3613        29  CHL1      H4B            20.6184350646       -3.9650988140       17.1198950000  MEMB      29              0.0000000000
      3614        29  CHL1      C5             21.0984500697       -4.9411102361       15.0472750000  MEMB      29              0.0000000000
      3615        29  CHL1      C6             20.8386273682       -3.8651949707       14.2601850000  MEMB      29              0.0000000000
      3616        29  CHL1      H6             20.4810073094       -2.9401304281       14.7359650000  MEMB      29              0.0000000000
      3617        29  CHL1      C7             20.8962124505       -3.8989024788       12.7830650000  MEMB      29              0.0000000000
      3618        29  CHL1      H7A            19.9366956961       -3.5113443552       12.3787750000  MEMB      29              0.0000000000
      3619        29  CHL1      H7B            21.6776186876       -3.1662059737       12.4883050000  MEMB      29              0.0000000000
      3620        29  CHL1      C8             21.1531052698       -5.2794603288       12.2303650000  MEMB      29              0.0000000000
      3621        29  CHL1      H8             20.1410046210       -5.7348537210       12.1796050000  MEMB      29              0.0000000000
      3622        29  CHL1      C14            21.6358547513       -5.2235436122       10.7567950000  MEMB      29              0.0000000000
      3623        29  CHL1      H14            22.6992136517       -4.9022267956       10.7382050000  MEMB      29              0.0000000000
      3624        29  CHL1      C15            20.8845395678       -4.3195240996        9.7750050000  MEMB      29              0.0000000000
      3625        29  CHL1      H15A           19.8017414522       -4.2593095393       10.0163650000  MEMB      29              0.0000000000
      3626        29  CHL1      H15B           21.3003420662       -3.2912117691        9.8381450000  MEMB      29              0.0000000000
      3627        29  CHL1      C16            21.1928313477       -4.8574377308        8.3714950000  MEMB      29              0.0000000000
      3628        29  CHL1      H16A           20.2492531245       -5.0483907802        7.8169450000  MEMB      29              0.0000000000
      3629        29  CHL1      H16B           21.7738440858       -4.0323190635        7.9068450000  MEMB      29              0.0000000000
      3630        29  CHL1      C17            22.0894371055       -6.0402273172        8.6231650000  MEMB      29              0.0000000000
      3631        29  CHL1      H17            23.0785810029       -5.5584935061        8.7776150000  MEMB      29              0.0000000000
      3632        29  CHL1      C13            21.7113755149       -6.5713015811       10.0224350000  MEMB      29              0.0000000000
      3633        29  CHL1      C18            20.2329440091       -7.1947617411        9.9946950000  MEMB      29              0.0000000000
      3634        29  CHL1      H18A           19.5112799660       -6.4824604153        9.5406750000  MEMB      29              0.0000000000
      3635        29  CHL1      H18B           20.2393903646       -8.0507428229        9.2864750000  MEMB      29              0.0000000000
      3636        29  CHL1      H18C           20.0139262783       -7.5099074169       11.0373150000  MEMB      29              0.0000000000
      3637        29  CHL1      C12            22.6771929378       -7.3872772703       10.8169250000  MEMB      29              0.0000000000
      3638        29  CHL1      H12A           22.5045498650       -8.4436326937       10.5191750000  MEMB      29              0.0000000000
      3639        29  CHL1      H12B           23.7463864105       -7.1350287356       10.6510450000  MEMB      29              0.0000000000
      3640        29  CHL1      C11            22.3620211212       -7.4462534563       12.3619950000  MEMB      29              0.0000000000
      3641        29  CHL1      H11A           21.4555960372       -8.0878509009       12.3945950000  MEMB      29              0.0000000000
      3642        29  CHL1      H11B           23.3099403376       -7.9248836509       12.6885950000  MEMB      29              0.0000000000
      3643        29  CHL1      C9             22.1325451970       -6.1447220928       13.0655150000  MEMB      29              0.0000000000
      3644        29  CHL1      H9             23.1101416222       -5.6172488591       13.0860250000  MEMB      29              0.0000000000
      3645        29  CHL1      C10            21.6360347008       -6.3318483326       14.5665950000  MEMB      29              0.0000000000
      3646        29  CHL1      C19            20.4250789930       -7.3272431970       14.4975150000  MEMB      29              0.0000000000
      3647        29  CHL1      H19A           20.8362767697       -8.3465876964       14.3357350000  MEMB      29              0.0000000000
      3648        29  CHL1      H19B           19.9059522167       -7.2557262610       15.4771650000  MEMB      29              0.0000000000
      3649        29  CHL1      H19C           19.7444666899       -7.1657788300       13.6343650000  MEMB      29              0.0000000000
      3650        29  CHL1      C1             22.7445939676       -6.9758704263       15.4179850000  MEMB      29              0.0000000000
      3651        29  CHL1      H1A            22.9407443498       -7.9857405083       14.9984550000  MEMB      29              0.0000000000
      3652        29  CHL1      H1B            23.7016383672       -6.4400805079       15.2409950000  MEMB      29              0.0000000000
      3653        29  CHL1      C2             22.4049625339       -6.9277524326       16.8930250000  MEMB      29              0.0000000000
      3654        29  CHL1      H2A            23.2421931608       -7.2655886904       17.5405050000  MEMB      29              0.0000000000
      3655        29  CHL1      H2B            21.4636390763       -7.5087539003       16.9963150000  MEMB      29              0.0000000000
      3656        29  CHL1      C20            22.2039069897       -7.0325248420        7.4316150000  MEMB      29              0.0000000000
      3657        29  CHL1      H20            21.2114582757       -7.5300238866        7.4745550000  MEMB      29              0.0000000000
      3658        29  CHL1      C21            23.3184530421       -8.0103530306        7.4983250000  MEMB      29              0.0000000000
      3659        29  CHL1      H21A           23.5156806647       -8.4863370448        6.5140150000  MEMB      29              0.0000000000
      3660        29  CHL1      H21B           23.0723389623       -8.7710750398        8.2697250000  MEMB      29              0.0000000000
      3661        29  CHL1      H21C           24.2656464283       -7.5358656744        7.8329850000  MEMB      29              0.0000000000
      3662        29  CHL1      C22            22.2082928185       -6.4209506307        6.0142350000  MEMB      29              0.0000000000
      3663        29  CHL1      H22A           22.1679661682       -7.2134126529        5.2365950000  MEMB      29              0.0000000000
      3664        29  CHL1      H22B           21.2644991127       -5.8894463861        5.7670850000  MEMB      29              0.0000000000
      3665        29  CHL1      C23            23.4664521868       -5.7112565421        5.6280050000  MEMB      29              0.0000000000
      3666        29  CHL1      H23A           23.5449800656       -4.9152843438        6.3990950000  MEMB      29              0.0000000000
      3667        29  CHL1      H23B           24.3018381181       -6.4403000611        5.6984250000  MEMB      29              0.0000000000
      3668        29  CHL1      C24            23.6859792068       -5.2437465075        4.2766850000  MEMB      29              0.0000000000
      3669        29  CHL1      H24A           24.5960985947       -4.6162419590        4.1659750000  MEMB      29              0.0000000000
      3670        29  CHL1      H24B           23.6988803837       -6.1572290657        3.6444750000  MEMB      29              0.0000000000
      3671        29  CHL1      C25            22.5388600940       -4.3129235605        3.6454650000  MEMB      29              0.0000000000
      3672        29  CHL1      H25            21.5992322676       -4.9055330484        3.6302150000  MEMB      29              0.0000000000
      3673        29  CHL1      C26            22.3993220809       -3.0628875905        4.4773850000  MEMB      29              0.0000000000
      3674        29  CHL1      H26A           22.2435164679       -3.1661187556        5.5725550000  MEMB      29              0.0000000000
      3675        29  CHL1      H26B           23.3707779796       -2.5310839601        4.3891950000  MEMB      29              0.0000000000
      3676        29  CHL1      H26C           21.6795531873       -2.3235512780        4.0655350000  MEMB      29              0.0000000000
      3677        29  CHL1      C27            22.8623314653       -4.0019190429        2.1861850000  MEMB      29              0.0000000000
      3678        29  CHL1      H27A           22.3327909909       -3.0521496175        1.9584650000  MEMB      29              0.0000000000
      3679        29  CHL1      H27B           23.9382934396       -3.7595034267        2.0524850000  MEMB      29              0.0000000000
      3680        29  CHL1      H27C           22.5624760647       -4.7673520759        1.4388450000  MEMB      29              0.0000000000
      3681        30  23SM      N              -4.4678083647      -24.1596578532       26.8647956906  MEMB      30              0.0000000000
      3682        30  23SM      C15            -4.9926071905      -23.8545738744       28.3104540371  MEMB      30              0.0000000000
      3683        30  23SM      H15A           -5.3592384080      -24.7050019787       28.8661101234  MEMB      30              0.0000000000
      3684        30  23SM      H15B           -5.8052577884      -23.1538225186       28.1881983453  MEMB      30              0.0000000000
      3685        30  23SM      H15C           -4.2029127673      -23.4607692486       28.9331100331  MEMB      30              0.0000000000
      3686        30  23SM      C14            -3.4221421110      -25.2513813388       27.0876415065  MEMB      30              0.0000000000
      3687        30  23SM      H14A           -2.9736246791      -25.7428356918       26.2369331320  MEMB      30              0.0000000000
      3688        30  23SM      H14B           -3.9322321241      -26.0370316223       27.6251930312  MEMB      30              0.0000000000
      3689        30  23SM      H14C           -2.6554030265      -24.9683856734       27.7936335484  MEMB      30              0.0000000000
      3690        30  23SM      C13            -5.5637858034      -24.6663611444       25.9311794179  MEMB      30              0.0000000000
      3691        30  23SM      H13A           -6.2763899735      -23.8579907127       26.0028220882  MEMB      30              0.0000000000
      3692        30  23SM      H13B           -6.0041700084      -25.5793935239       26.3037828431  MEMB      30              0.0000000000
      3693        30  23SM      H13C           -5.1383912761      -24.7323291011       24.9406807255  MEMB      30              0.0000000000
      3694        30  23SM      C12            -3.7375355428      -22.9619826145       26.3171076634  MEMB      30              0.0000000000
      3695        30  23SM      H12A           -3.3597204195      -23.2182233768       25.3383347981  MEMB      30              0.0000000000
      3696        30  23SM      H12B           -2.9250156308      -22.8314154389       27.0165099566  MEMB      30              0.0000000000
      3697        30  23SM      C11            -4.4983849019      -21.5458716565       26.1016119810  MEMB      30              0.0000000000
      3698        30  23SM      H11A           -3.7264889484      -20.8460846613       25.7158715361  MEMB      30              0.0000000000
      3699        30  23SM      H11B           -4.7975921781      -21.2759697154       27.1369616515  MEMB      30              0.0000000000
      3700        30  23SM      P              -6.6839882726      -20.5351413389       25.1352726976  MEMB      30              0.0000000000
      3701        30  23SM      O13            -7.4056548034      -20.3425876203       26.4147028302  MEMB      30              0.0000000000
      3702        30  23SM      O14            -6.0445592813      -19.4124263817       24.4980928095  MEMB      30              0.0000000000
      3703        30  23SM      O11            -7.7515163486      -21.0362913785       23.9800801837  MEMB      30              0.0000000000
      3704        30  23SM      O12            -5.6165217548      -21.6631508004       25.3590612148  MEMB      30              0.0000000000
      3705        30  23SM      C1S            -7.4771451315      -22.1317199846       23.0960894886  MEMB      30              0.0000000000
      3706        30  23SM      H1S            -8.0417232682      -23.0310700373       23.4228035700  MEMB      30              0.0000000000
      3707        30  23SM      H1T            -6.3997958224      -22.3993279844       23.0510842040  MEMB      30              0.0000000000
      3708        30  23SM      NF             -7.7912073249      -22.9284450134       20.6849564189  MEMB      30              0.0000000000
      3709        30  23SM      HNF            -7.1547558225      -22.6672856270       19.9633371612  MEMB      30              0.0000000000
      3710        30  23SM      C2S            -7.9701493642      -21.8356464110       21.5484745361  MEMB      30              0.0000000000
      3711        30  23SM      H2S            -9.0463533399      -21.5602135150       21.5329037931  MEMB      30              0.0000000000
      3712        30  23SM      C3S            -7.0965440208      -20.7047705117       20.9213291936  MEMB      30              0.0000000000
      3713        30  23SM      H3S            -6.0211017555      -20.9742632376       20.8497842018  MEMB      30              0.0000000000
      3714        30  23SM      O3             -7.1600754449      -19.4948999746       21.6353618149  MEMB      30              0.0000000000
      3715        30  23SM      HO3            -7.3817966730      -19.7465287007       22.5348744614  MEMB      30              0.0000000000
      3716        30  23SM      C4S            -7.4993853264      -20.4489079878       19.4760301138  MEMB      30              0.0000000000
      3717        30  23SM      H4S            -6.8030073074      -20.8648392734       18.7330237596  MEMB      30              0.0000000000
      3718        30  23SM      C5S            -8.5210691111      -19.7614287459       18.9717285104  MEMB      30              0.0000000000
      3719        30  23SM      H5S            -9.2652761749      -19.3052152759       19.6410753155  MEMB      30              0.0000000000
      3720        30  23SM      C6S            -8.8303376900      -19.6396307957       17.4661242743  MEMB      30              0.0000000000
      3721        30  23SM      H6S            -8.1024762885      -18.8855067699       17.0975652828  MEMB      30              0.0000000000
      3722        30  23SM      H6T            -9.8562543089      -19.2614678776       17.2691240371  MEMB      30              0.0000000000
      3723        30  23SM      C7S            -8.5512969968      -20.9568904384       16.5931988813  MEMB      30              0.0000000000
      3724        30  23SM      H7S            -9.1077176641      -21.7442421711       17.1452803000  MEMB      30              0.0000000000
      3725        30  23SM      H7T            -7.4634327625      -21.1510885467       16.4784842222  MEMB      30              0.0000000000
      3726        30  23SM      C8S            -9.0512969490      -20.9856454003       15.1080711119  MEMB      30              0.0000000000
      3727        30  23SM      H8S            -8.6579229384      -20.0713813103       14.6144132861  MEMB      30              0.0000000000
      3728        30  23SM      H8T           -10.1561576640      -20.8732610616       15.1392734985  MEMB      30              0.0000000000
      3729        30  23SM      C9S            -8.6496898331      -22.2124961969       14.2516559081  MEMB      30              0.0000000000
      3730        30  23SM      H9S            -9.1878905846      -23.0964175743       14.6558148465  MEMB      30              0.0000000000
      3731        30  23SM      H9T            -7.5391378083      -22.2439009497       14.2486346429  MEMB      30              0.0000000000
      3732        30  23SM      C10S           -9.1924984521      -21.9703128002       12.8419659394  MEMB      30              0.0000000000
      3733        30  23SM      H10S           -9.0016566096      -20.9360248810       12.4839865700  MEMB      30              0.0000000000
      3734        30  23SM      H10T          -10.2964324566      -22.0949574162       12.8312724520  MEMB      30              0.0000000000
      3735        30  23SM      C11S           -8.4959377856      -22.9204359945       11.7332865863  MEMB      30              0.0000000000
      3736        30  23SM      H11S           -8.7180718896      -24.0010081618       11.8649731606  MEMB      30              0.0000000000
      3737        30  23SM      H11T           -7.3883513010      -22.8882971817       11.8141592149  MEMB      30              0.0000000000
      3738        30  23SM      C12S           -8.9311191330      -22.3656798497       10.3184347875  MEMB      30              0.0000000000
      3739        30  23SM      H12S           -8.7604958670      -21.2678965677       10.3094600403  MEMB      30              0.0000000000
      3740        30  23SM      H12T          -10.0104617393      -22.6275102187       10.2904109634  MEMB      30              0.0000000000
      3741        30  23SM      C13S           -8.2992030201      -23.1034215224        9.1499770111  MEMB      30              0.0000000000
      3742        30  23SM      H13S           -8.2549936422      -24.2084931760        9.2557284541  MEMB      30              0.0000000000
      3743        30  23SM      H13T           -7.2235805689      -22.8826823771        8.9807682150  MEMB      30              0.0000000000
      3744        30  23SM      C14S           -9.0933147354      -22.7910620990        7.8390217933  MEMB      30              0.0000000000
      3745        30  23SM      H14S           -8.7811915193      -21.7661365410        7.5450372459  MEMB      30              0.0000000000
      3746        30  23SM      H14T          -10.1914686523      -22.8276440060        8.0034628564  MEMB      30              0.0000000000
      3747        30  23SM      C15S           -8.6919620830      -23.7063709269        6.6504023012  MEMB      30              0.0000000000
      3748        30  23SM      H15S           -8.8568996770      -24.7512715930        6.9899594339  MEMB      30              0.0000000000
      3749        30  23SM      H15T           -7.5872143049      -23.6154858648        6.5756141421  MEMB      30              0.0000000000
      3750        30  23SM      C16S           -9.2851958667      -23.2262485712        5.3287726413  MEMB      30              0.0000000000
      3751        30  23SM      H16S           -8.9896823169      -22.1848901455        5.0786422936  MEMB      30              0.0000000000
      3752        30  23SM      H16T          -10.3897602723      -23.1929901830        5.4434584632  MEMB      30              0.0000000000
      3753        30  23SM      C17S           -8.7927128005      -24.0575258389        4.0823319295  MEMB      30              0.0000000000
      3754        30  23SM      H17S           -9.1365193409      -25.0928102415        4.2928165673  MEMB      30              0.0000000000
      3755        30  23SM      H17T           -7.6869339278      -23.9647906165        4.1368695757  MEMB      30              0.0000000000
      3756        30  23SM      C18S           -9.1369519736      -23.3659263221        2.7389771219  MEMB      30              0.0000000000
      3757        30  23SM      H18S           -8.9829329944      -24.0495294787        1.8768369565  MEMB      30              0.0000000000
      3758        30  23SM      H18T           -8.3909438054      -22.5615621389        2.5635025517  MEMB      30              0.0000000000
      3759        30  23SM      H18U          -10.1886200636      -23.0371553952        2.5967622247  MEMB      30              0.0000000000
      3760        30  23SM      C1F            -8.3153699705      -24.1737814787       20.6997858048  MEMB      30              0.0000000000
      3761        30  23SM      OF             -8.9519390548      -24.6645575317       21.6295677655  MEMB      30              0.0000000000
      3762        30  23SM      C2F            -8.2386598566      -24.8235460614       19.3213537028  MEMB      30              0.0000000000
      3763        30  23SM      H2F            -7.9963934525      -24.0999400806       18.5138750375  MEMB      30              0.0000000000
      3764        30  23SM      H2G            -9.1794107854      -25.3509086895       19.0545251053  MEMB      30              0.0000000000
      3765        30  23SM      C3F            -7.1278424670      -25.9306849769       19.3894119774  MEMB      30              0.0000000000
      3766        30  23SM      H3F            -6.9719684401      -26.2865498366       18.3485543267  MEMB      30              0.0000000000
      3767        30  23SM      H3G            -7.5296031707      -26.7586279257       20.0118428660  MEMB      30              0.0000000000
      3768        30  23SM      C4F            -5.7704035165      -25.5170174467       19.9034519452  MEMB      30              0.0000000000
      3769        30  23SM      H4F            -5.1616494619      -26.4451726075       19.8558272649  MEMB      30              0.0000000000
      3770        30  23SM      H4G            -5.8585938640      -25.2210892230       20.9706773158  MEMB      30              0.0000000000
      3771        30  23SM      C5F            -5.1368237440      -24.3682728674       19.1691071102  MEMB      30              0.0000000000
      3772        30  23SM      H5F            -5.5923802526      -23.5289175410       19.7367969497  MEMB      30              0.0000000000
      3773        30  23SM      H5G            -5.4331239711      -24.3270198348       18.0991421078  MEMB      30              0.0000000000
      3774        30  23SM      C6F            -3.6246902909      -24.3773415692       19.1400470444  MEMB      30              0.0000000000
      3775        30  23SM      H6F            -3.2707141329      -25.2170088814       18.5044518445  MEMB      30              0.0000000000
      3776        30  23SM      H6G            -3.2063728591      -24.6281947429       20.1382473729  MEMB      30              0.0000000000
      3777        30  23SM      C7F            -2.9614780638      -23.1748683717       18.4549979193  MEMB      30              0.0000000000
      3778        30  23SM      H7F            -1.8767258603      -23.2164689202       18.6914360441  MEMB      30              0.0000000000
      3779        30  23SM      H7G            -3.3364345454      -22.1922571245       18.8130540760  MEMB      30              0.0000000000
      3780        30  23SM      C8F            -3.2827916328      -23.3934066720       17.0090621429  MEMB      30              0.0000000000
      3781        30  23SM      H8F            -4.3768348958      -23.3756077736       16.8165172593  MEMB      30              0.0000000000
      3782        30  23SM      H8G            -3.0784152056      -24.4293672701       16.6636103879  MEMB      30              0.0000000000
      3783        30  23SM      C9F            -2.3758488831      -22.4342548996       16.1946783536  MEMB      30              0.0000000000
      3784        30  23SM      H9F            -1.3444866952      -22.5843552411       16.5794952033  MEMB      30              0.0000000000
      3785        30  23SM      H9G            -2.6815746607      -21.4217731057       16.5348744445  MEMB      30              0.0000000000
      3786        30  23SM      C10F           -2.5762564684      -22.4255466758       14.6675011322  MEMB      30              0.0000000000
      3787        30  23SM      H10F           -2.7069691074      -23.4503721859       14.2588843815  MEMB      30              0.0000000000
      3788        30  23SM      H10G           -1.5949779013      -22.1099787205       14.2529775270  MEMB      30              0.0000000000
      3789        30  23SM      C11F           -3.7054795548      -21.4818191190       14.2030953543  MEMB      30              0.0000000000
      3790        30  23SM      H11F           -3.5216688831      -20.4655509092       14.6126482015  MEMB      30              0.0000000000
      3791        30  23SM      H11G           -4.5754698104      -21.8987380925       14.7541096790  MEMB      30              0.0000000000
      3792        30  23SM      C12F           -3.8318183046      -21.6702897327       12.6788926874  MEMB      30              0.0000000000
      3793        30  23SM      H12F           -3.9669146724      -22.7586502487       12.5012940772  MEMB      30              0.0000000000
      3794        30  23SM      H12G           -2.9259977172      -21.3137491819       12.1434596259  MEMB      30              0.0000000000
      3795        30  23SM      C13F           -5.2322014692      -21.0520080113       12.2599396207  MEMB      30              0.0000000000
      3796        30  23SM      H13F           -5.1156983630      -19.9806176762       12.5298853090  MEMB      30              0.0000000000
      3797        30  23SM      H13G           -6.0972155304      -21.5961484532       12.6958096450  MEMB      30              0.0000000000
      3798        30  23SM      C14F           -5.7422282933      -20.9069044537       10.8687666497  MEMB      30              0.0000000000
      3799        30  23SM      H14F           -6.6701164685      -20.3005777750       10.9443473772  MEMB      30              0.0000000000
      3800        30  23SM      H14G           -6.0506669807      -21.7969668019       10.2797205089  MEMB      30              0.0000000000
      3801        30  23SM      C15F           -4.7477716974      -20.0696181619       10.0330969122  MEMB      30              0.0000000000
      3802        30  23SM      H15F           -3.8445651863      -20.6733825270        9.8007016668  MEMB      30              0.0000000000
      3803        30  23SM      H15G           -4.4151834131      -19.2119382024       10.6560666135  MEMB      30              0.0000000000
      3804        30  23SM      C16F           -5.3083393174      -19.5286230649        8.7269706391  MEMB      30              0.0000000000
      3805        30  23SM      H16F           -4.6583087208      -18.6971546986        8.3799234941  MEMB      30              0.0000000000
      3806        30  23SM      H16G           -6.2622873762      -19.0392905353        9.0182737242  MEMB      30              0.0000000000
      3807        30  23SM      C17F           -5.6087813309      -20.5268563449        7.5782388535  MEMB      30              0.0000000000
      3808        30  23SM      H17F           -6.6102756355      -21.0006897028        7.6607747974  MEMB      30              0.0000000000
      3809        30  23SM      H17G           -4.8620839514      -21.3484263162        7.6205045717  MEMB      30              0.0000000000
      3810        30  23SM      C18F           -5.8574236950      -19.8628490761        6.1649068789  MEMB      30              0.0000000000
      3811        30  23SM      H18F           -5.2600377167      -18.9613856818        5.9103178130  MEMB      30              0.0000000000
      3812        30  23SM      H18G           -6.8945830334      -19.4839839445        6.0420934738  MEMB      30              0.0000000000
      3813        30  23SM      C19F           -5.4098165098      -20.8093281968        5.0441555296  MEMB      30              0.0000000000
      3814        30  23SM      H19F           -5.7646658542      -21.8460007417        5.2277664781  MEMB      30              0.0000000000
      3815        30  23SM      H19G           -4.3022947527      -20.8970943542        5.0478312019  MEMB      30              0.0000000000
      3816        30  23SM      C20F           -5.7662687516      -20.3402010672        3.6216887993  MEMB      30              0.0000000000
      3817        30  23SM      H20F           -6.8608713377      -20.3887833863        3.4378237555  MEMB      30              0.0000000000
      3818        30  23SM      H20G           -5.4063179777      -21.2007093858        3.0181301880  MEMB      30              0.0000000000
      3819        30  23SM      C21F           -5.1935069958      -19.0436044240        3.0865075805  MEMB      30              0.0000000000
      3820        30  23SM      H21F           -4.0919417227      -19.0770354103        3.2270660708  MEMB      30              0.0000000000
      3821        30  23SM      H21G           -5.4948006195      -18.2200048263        3.7685820618  MEMB      30              0.0000000000
      3822        30  23SM      C22F           -5.5480655083      -18.5250931575        1.6697961299  MEMB      30              0.0000000000
      3823        30  23SM      H22F           -5.1268368761      -17.4976912842        1.7062967319  MEMB      30              0.0000000000
      3824        30  23SM      H22G           -6.6553199037      -18.5902683102        1.6060724893  MEMB      30              0.0000000000
      3825        30  23SM      C23F           -4.8433227610      -19.2275439355        0.5756727186  MEMB      30              0.0000000000
      3826        30  23SM      H23F           -5.2409042010      -18.8428327933       -0.3877840031  MEMB      30              0.0000000000
      3827        30  23SM      H23G           -5.2305938172      -20.2683885014        0.6070558995  MEMB      30              0.0000000000
      3828        30  23SM      H23H           -3.7345391230      -19.1627865587        0.5487251660  MEMB      30              0.0000000000
      3829        31  23SM      N              15.7850496975      -17.5469420113       28.0360929164  MEMB      31              0.0000000000
      3830        31  23SM      C15            14.3454330579      -17.9730116346       28.1935587319  MEMB      31              0.0000000000
      3831        31  23SM      H15A           13.9910865240      -17.3911604108       29.0315846050  MEMB      31              0.0000000000
      3832        31  23SM      H15B           14.3121339907      -19.0503595416       28.2614755033  MEMB      31              0.0000000000
      3833        31  23SM      H15C           13.7458692969      -17.6386596194       27.3598128725  MEMB      31              0.0000000000
      3834        31  23SM      C14            15.8709361111      -16.0484860901       27.8429493845  MEMB      31              0.0000000000
      3835        31  23SM      H14A           15.1743849964      -15.7016618141       27.0939973221  MEMB      31              0.0000000000
      3836        31  23SM      H14B           16.9089773569      -15.8035665678       27.6729944090  MEMB      31              0.0000000000
      3837        31  23SM      H14C           15.6075624467      -15.6357552208       28.8055955586  MEMB      31              0.0000000000
      3838        31  23SM      C13            16.6043149893      -18.0672261637       29.1360153756  MEMB      31              0.0000000000
      3839        31  23SM      H13A           16.4748353435      -17.4681831174       30.0252749286  MEMB      31              0.0000000000
      3840        31  23SM      H13B           17.6661718727      -17.9733046917       28.9626983934  MEMB      31              0.0000000000
      3841        31  23SM      H13C           16.3802715154      -19.1094074097       29.3094015582  MEMB      31              0.0000000000
      3842        31  23SM      C12            16.3973350379      -18.0647381607       26.7393848383  MEMB      31              0.0000000000
      3843        31  23SM      H12A           16.3038798999      -19.1404641879       26.7612843133  MEMB      31              0.0000000000
      3844        31  23SM      H12B           17.4496616275      -17.8627417456       26.8743152406  MEMB      31              0.0000000000
      3845        31  23SM      C11            15.9606147287      -17.4856291934       25.4303809187  MEMB      31              0.0000000000
      3846        31  23SM      H11A           16.5856999837      -17.9997070013       24.6692544630  MEMB      31              0.0000000000
      3847        31  23SM      H11B           16.3159432593      -16.4371375462       25.3369573705  MEMB      31              0.0000000000
      3848        31  23SM      P              14.0653939029      -18.6619897669       24.1119062919  MEMB      31              0.0000000000
      3849        31  23SM      O13            14.4692701240      -19.9703302119       24.5487113876  MEMB      31              0.0000000000
      3850        31  23SM      O14            12.6141370243      -18.3642243988       23.9538644590  MEMB      31              0.0000000000
      3851        31  23SM      O11            14.8281524746      -18.2144352626       22.8171073277  MEMB      31              0.0000000000
      3852        31  23SM      O12            14.5573031547      -17.5775188087       25.1900283639  MEMB      31              0.0000000000
      3853        31  23SM      C1S            14.6154265813      -16.9010420373       22.2661026799  MEMB      31              0.0000000000
      3854        31  23SM      H1S            15.5511296223      -16.3265363269       22.4355839464  MEMB      31              0.0000000000
      3855        31  23SM      H1T            13.7387482146      -16.3816344848       22.7087899719  MEMB      31              0.0000000000
      3856        31  23SM      NF             13.2058091407      -17.1621396975       20.2597674776  MEMB      31              0.0000000000
      3857        31  23SM      HNF            12.9375611686      -18.1206598640       20.2023991665  MEMB      31              0.0000000000
      3858        31  23SM      C2S            14.5902950660      -17.0072888346       20.6838485118  MEMB      31              0.0000000000
      3859        31  23SM      H2S            14.9009630263      -16.0035151763       20.3229543449  MEMB      31              0.0000000000
      3860        31  23SM      C3S            15.4368345717      -18.1278423507       20.1064734239  MEMB      31              0.0000000000
      3861        31  23SM      H3S            15.1546844613      -19.1214495002       20.5156884598  MEMB      31              0.0000000000
      3862        31  23SM      O3             16.7716968571      -17.9173014011       20.5397640746  MEMB      31              0.0000000000
      3863        31  23SM      HO3            16.6570147256      -17.4822658781       21.3878160183  MEMB      31              0.0000000000
      3864        31  23SM      C4S            15.2731221020      -18.1574879930       18.6109244536  MEMB      31              0.0000000000
      3865        31  23SM      H4S            15.6726463872      -17.3504571159       17.9791951443  MEMB      31              0.0000000000
      3866        31  23SM      C5S            14.5016768391      -19.0608463877       17.9124959405  MEMB      31              0.0000000000
      3867        31  23SM      H5S            14.0176092685      -19.8496723813       18.5069971635  MEMB      31              0.0000000000
      3868        31  23SM      C6S            14.3824687716      -19.0135785591       16.3658454064  MEMB      31              0.0000000000
      3869        31  23SM      H6S            14.3030389466      -17.9998911369       15.9181297619  MEMB      31              0.0000000000
      3870        31  23SM      H6T            13.4134963065      -19.4790054858       16.0851482506  MEMB      31              0.0000000000
      3871        31  23SM      C7S            15.4924094548      -19.8280416519       15.6903297788  MEMB      31              0.0000000000
      3872        31  23SM      H7S            15.7034696336      -20.8538308857       16.0611818584  MEMB      31              0.0000000000
      3873        31  23SM      H7T            16.4468469528      -19.2612111526       15.7358619790  MEMB      31              0.0000000000
      3874        31  23SM      C8S            15.1532065114      -20.0697642994       14.2224460701  MEMB      31              0.0000000000
      3875        31  23SM      H8S            15.3076366298      -19.0913495593       13.7192795512  MEMB      31              0.0000000000
      3876        31  23SM      H8T            14.1093931014      -20.4136757385       14.0596599854  MEMB      31              0.0000000000
      3877        31  23SM      C9S            16.1920654365      -20.9720925660       13.5222188894  MEMB      31              0.0000000000
      3878        31  23SM      H9S            15.9544000187      -21.9668645003       13.9561140794  MEMB      31              0.0000000000
      3879        31  23SM      H9T            17.2439907065      -20.8268933952       13.8488557063  MEMB      31              0.0000000000
      3880        31  23SM      C10S           16.0820179399      -21.0198368965       11.9472860509  MEMB      31              0.0000000000
      3881        31  23SM      H10S           16.9148175223      -21.5800801190       11.4709519025  MEMB      31              0.0000000000
      3882        31  23SM      H10T           16.3360078725      -19.9867319712       11.6271227391  MEMB      31              0.0000000000
      3883        31  23SM      C11S           14.7262924517      -21.3431933326       11.3834760851  MEMB      31              0.0000000000
      3884        31  23SM      H11S           14.0368729155      -20.8594953125       12.1080846991  MEMB      31              0.0000000000
      3885        31  23SM      H11T           14.6180637779      -22.4485047411       11.4133797704  MEMB      31              0.0000000000
      3886        31  23SM      C12S           14.4646969838      -20.7634136578        9.9486301041  MEMB      31              0.0000000000
      3887        31  23SM      H12S           14.3646402862      -19.6641123612       10.0745116738  MEMB      31              0.0000000000
      3888        31  23SM      H12T           13.5433219101      -21.2317103183        9.5410917250  MEMB      31              0.0000000000
      3889        31  23SM      C13S           15.6242517937      -21.0878448720        8.9251731490  MEMB      31              0.0000000000
      3890        31  23SM      H13S           15.8956901603      -22.1642919901        8.9688080292  MEMB      31              0.0000000000
      3891        31  23SM      H13T           16.4828958909      -20.5051790122        9.3221018506  MEMB      31              0.0000000000
      3892        31  23SM      C14S           15.3383790763      -20.5572347970        7.5820341877  MEMB      31              0.0000000000
      3893        31  23SM      H14S           14.7947020702      -19.5938179800        7.6848174451  MEMB      31              0.0000000000
      3894        31  23SM      H14T           14.5863591557      -21.2400381839        7.1319602973  MEMB      31              0.0000000000
      3895        31  23SM      C15S           16.5752734032      -20.5391722826        6.6963885458  MEMB      31              0.0000000000
      3896        31  23SM      H15S           17.0212388125      -21.5530123676        6.6094126905  MEMB      31              0.0000000000
      3897        31  23SM      H15T           17.3042445140      -19.7605873177        7.0073973089  MEMB      31              0.0000000000
      3898        31  23SM      C16S           16.2234599094      -20.3774213646        5.1943511761  MEMB      31              0.0000000000
      3899        31  23SM      H16S           15.5998284229      -19.4697285123        5.0477270062  MEMB      31              0.0000000000
      3900        31  23SM      H16T           15.6689748098      -21.2571157849        4.8031929194  MEMB      31              0.0000000000
      3901        31  23SM      C17S           17.5045154127      -20.1025927544        4.4272767322  MEMB      31              0.0000000000
      3902        31  23SM      H17S           18.2289639488      -20.9258997062        4.6052121818  MEMB      31              0.0000000000
      3903        31  23SM      H17T           17.9201307563      -19.1952349822        4.9154252231  MEMB      31              0.0000000000
      3904        31  23SM      C18S           17.3622242467      -19.8150854408        2.8525146949  MEMB      31              0.0000000000
      3905        31  23SM      H18S           16.7446237801      -20.5976664965        2.3621489317  MEMB      31              0.0000000000
      3906        31  23SM      H18T           18.3122543400      -19.6419619816        2.3031573560  MEMB      31              0.0000000000
      3907        31  23SM      H18U           16.8791041047      -18.8535973805        2.5760058651  MEMB      31              0.0000000000
      3908        31  23SM      C1F            12.3106447584      -16.1407021312       20.4041995793  MEMB      31              0.0000000000
      3909        31  23SM      OF             12.6400033880      -14.9888900746       20.6543385917  MEMB      31              0.0000000000
      3910        31  23SM      C2F            10.8760268370      -16.6744289278       20.2249415771  MEMB      31              0.0000000000
      3911        31  23SM      H2F            10.4052511504      -16.5304128115       21.2209089185  MEMB      31              0.0000000000
      3912        31  23SM      H2G            10.8453876179      -17.6982574370       19.7946423244  MEMB      31              0.0000000000
      3913        31  23SM      C3F            10.1481985835      -15.7537672773       19.1146481539  MEMB      31              0.0000000000
      3914        31  23SM      H3F            10.0928058934      -14.7013497565       19.4663159088  MEMB      31              0.0000000000
      3915        31  23SM      H3G             9.1289138614      -16.1245797891       18.8740707065  MEMB      31              0.0000000000
      3916        31  23SM      C4F            10.9158268569      -15.6497132926       17.7800222871  MEMB      31              0.0000000000
      3917        31  23SM      H4F            11.9484454357      -15.2959635442       17.9870991892  MEMB      31              0.0000000000
      3918        31  23SM      H4G            10.5255133813      -14.8273500527       17.1430806351  MEMB      31              0.0000000000
      3919        31  23SM      C5F            10.9116311093      -16.9262073751       16.9698970976  MEMB      31              0.0000000000
      3920        31  23SM      H5F             9.8752450777      -17.3218844799       16.9093622470  MEMB      31              0.0000000000
      3921        31  23SM      H5G            11.3297740479      -17.6994256659       17.6493168945  MEMB      31              0.0000000000
      3922        31  23SM      C6F            11.5161284397      -16.9555824380       15.5695937746  MEMB      31              0.0000000000
      3923        31  23SM      H6F            11.6245610242      -18.0294271003       15.3061152903  MEMB      31              0.0000000000
      3924        31  23SM      H6G            12.4634902480      -16.3764732218       15.6077889119  MEMB      31              0.0000000000
      3925        31  23SM      C7F            10.6051682999      -16.3240417356       14.3713712457  MEMB      31              0.0000000000
      3926        31  23SM      H7F            10.1309317109      -15.3869835974       14.7337837551  MEMB      31              0.0000000000
      3927        31  23SM      H7G             9.8160481761      -17.0988495690       14.2651488853  MEMB      31              0.0000000000
      3928        31  23SM      C8F            11.2954677947      -16.0724215932       13.0302268291  MEMB      31              0.0000000000
      3929        31  23SM      H8F            11.8465754553      -15.1086349413       12.9887943991  MEMB      31              0.0000000000
      3930        31  23SM      H8G            10.4227451239      -16.0339282907       12.3437907639  MEMB      31              0.0000000000
      3931        31  23SM      C9F            12.3153609335      -17.0962566752       12.4860448369  MEMB      31              0.0000000000
      3932        31  23SM      H9F            13.0570287366      -17.4024476355       13.2544833426  MEMB      31              0.0000000000
      3933        31  23SM      H9G            12.8014982068      -16.6047256098       11.6163387130  MEMB      31              0.0000000000
      3934        31  23SM      C10F           11.6451350219      -18.3954089863       11.9736189285  MEMB      31              0.0000000000
      3935        31  23SM      H10F           10.7951872433      -18.6993674561       12.6213212567  MEMB      31              0.0000000000
      3936        31  23SM      H10G           12.3570014224      -19.2343280625       11.8194047044  MEMB      31              0.0000000000
      3937        31  23SM      C11F           10.8132942981      -18.2193054505       10.6265891245  MEMB      31              0.0000000000
      3938        31  23SM      H11F           10.1964506149      -17.2969220212       10.5715114972  MEMB      31              0.0000000000
      3939        31  23SM      H11G           10.2039375945      -19.1405949956       10.5072953006  MEMB      31              0.0000000000
      3940        31  23SM      C12F           11.7268450318      -17.9327880822        9.4818458850  MEMB      31              0.0000000000
      3941        31  23SM      H12F           12.5528275953      -18.6746267079        9.4400186122  MEMB      31              0.0000000000
      3942        31  23SM      H12G           12.1003611567      -16.8972332125        9.6316225747  MEMB      31              0.0000000000
      3943        31  23SM      C13F           10.9673865969      -17.7316993043        8.1190437691  MEMB      31              0.0000000000
      3944        31  23SM      H13F           11.6887763683      -17.4955312604        7.3077838239  MEMB      31              0.0000000000
      3945        31  23SM      H13G           10.2888519697      -16.8776001970        8.3298204983  MEMB      31              0.0000000000
      3946        31  23SM      C14F           10.2807858696      -18.9576520866        7.6752043854  MEMB      31              0.0000000000
      3947        31  23SM      H14F            9.7853834826      -18.7575331010        6.7011146941  MEMB      31              0.0000000000
      3948        31  23SM      H14G            9.6176218277      -19.3358049281        8.4823815940  MEMB      31              0.0000000000
      3949        31  23SM      C15F           11.1651228317      -20.0896438916        7.2171369298  MEMB      31              0.0000000000
      3950        31  23SM      H15F           10.5704461447      -21.0075874174        7.4122284357  MEMB      31              0.0000000000
      3951        31  23SM      H15G           12.0695578124      -20.1010405635        7.8622638835  MEMB      31              0.0000000000
      3952        31  23SM      C16F           11.5219197172      -20.0728309802        5.7569117408  MEMB      31              0.0000000000
      3953        31  23SM      H16F           10.5877254986      -19.9785679859        5.1630121373  MEMB      31              0.0000000000
      3954        31  23SM      H16G           11.9900485859      -21.0564143643        5.5384170275  MEMB      31              0.0000000000
      3955        31  23SM      C17F           12.2914007345      -18.8589567908        5.1849912146  MEMB      31              0.0000000000
      3956        31  23SM      H17F           13.2789268308      -18.8678493694        5.6939463825  MEMB      31              0.0000000000
      3957        31  23SM      H17G           11.7215711686      -17.9196761490        5.3504221853  MEMB      31              0.0000000000
      3958        31  23SM      C18F           12.4604506673      -18.9319405535        3.6887056166  MEMB      31              0.0000000000
      3959        31  23SM      H18F           11.5364916584      -19.1273566006        3.1035284352  MEMB      31              0.0000000000
      3960        31  23SM      H18G           13.2558619512      -19.6979724665        3.5668983175  MEMB      31              0.0000000000
      3961        31  23SM      C19F           12.9685306935      -17.6028047440        3.2912675653  MEMB      31              0.0000000000
      3962        31  23SM      H19F           13.9349271957      -17.4182208276        3.8073381213  MEMB      31              0.0000000000
      3963        31  23SM      H19G           12.2542605176      -16.8237570865        3.6336491084  MEMB      31              0.0000000000
      3964        31  23SM      C20F           13.3680603138      -17.4724057577        1.8211996115  MEMB      31              0.0000000000
      3965        31  23SM      H20F           14.0671170374      -18.2716859752        1.4944105869  MEMB      31              0.0000000000
      3966        31  23SM      H20G           13.8537288727      -16.5046802320        1.5722944176  MEMB      31              0.0000000000
      3967        31  23SM      C21F           12.1871793088      -17.4860326753        0.8023834591  MEMB      31              0.0000000000
      3968        31  23SM      H21F           11.3494656086      -16.8681559135        1.1906943292  MEMB      31              0.0000000000
      3969        31  23SM      H21G           11.7581557580      -18.5102550084        0.7673395956  MEMB      31              0.0000000000
      3970        31  23SM      C22F           12.4863605386      -16.8720071649       -0.5094477651  MEMB      31              0.0000000000
      3971        31  23SM      H22F           12.7239977727      -15.8321097950       -0.1988617981  MEMB      31              0.0000000000
      3972        31  23SM      H22G           11.5856036975      -16.8488114953       -1.1593860783  MEMB      31              0.0000000000
      3973        31  23SM      C23F           13.7287875173      -17.3504108871       -1.3026541482  MEMB      31              0.0000000000
      3974        31  23SM      H23F           13.9850673600      -16.6616603987       -2.1358802136  MEMB      31              0.0000000000
      3975        31  23SM      H23G           13.4849622079      -18.3567916953       -1.7052312472  MEMB      31              0.0000000000
      3976        31  23SM      H23H           14.6022402635      -17.3984901519       -0.6177533553  MEMB      31              0.0000000000
      3977        32  CHL1      C3            -19.4357384241      -13.2548938509       17.3638500000  MEMB      32              0.0000000000
      3978        32  CHL1      H3            -19.1686222323      -12.2007490717       17.5913400000  MEMB      32              0.0000000000
      3979        32  CHL1      O3            -19.3451783759      -13.8272887491       18.6361500000  MEMB      32              0.0000000000
      3980        32  CHL1      H3'           -18.4131495643      -13.6524697259       18.7857200000  MEMB      32              0.0000000000
      3981        32  CHL1      C4            -20.8835905365      -13.2605033988       16.8078900000  MEMB      32              0.0000000000
      3982        32  CHL1      H4A           -21.3743264997      -14.2564599369       16.8473700000  MEMB      32              0.0000000000
      3983        32  CHL1      H4B           -21.4972342873      -12.6950256860       17.5413700000  MEMB      32              0.0000000000
      3984        32  CHL1      C5            -20.9317785823      -12.6877795293       15.3547100000  MEMB      32              0.0000000000
      3985        32  CHL1      C6            -21.7774264480      -11.6699218382       14.9437000000  MEMB      32              0.0000000000
      3986        32  CHL1      H6            -22.4986474221      -11.2809447019       15.6775500000  MEMB      32              0.0000000000
      3987        32  CHL1      C7            -21.9312862708      -11.1531019823       13.5440600000  MEMB      32              0.0000000000
      3988        32  CHL1      H7A           -23.0416488053      -11.1352625881       13.5105600000  MEMB      32              0.0000000000
      3989        32  CHL1      H7B           -21.5245861929      -10.1227566659       13.4585500000  MEMB      32              0.0000000000
      3990        32  CHL1      C8            -21.2516807368      -12.1042752907       12.5326200000  MEMB      32              0.0000000000
      3991        32  CHL1      H8            -21.9457606692      -12.9549252180       12.3623900000  MEMB      32              0.0000000000
      3992        32  CHL1      C14           -21.0631972076      -11.4114021502       11.2141800000  MEMB      32              0.0000000000
      3993        32  CHL1      H14           -20.2881673030      -10.6402971485       11.4117900000  MEMB      32              0.0000000000
      3994        32  CHL1      C15           -22.3170879614      -10.8235350156       10.5485700000  MEMB      32              0.0000000000
      3995        32  CHL1      H15A          -23.0491484535      -11.6566929567       10.4833900000  MEMB      32              0.0000000000
      3996        32  CHL1      H15B          -22.7227013698       -9.8996576186       11.0136200000  MEMB      32              0.0000000000
      3997        32  CHL1      C16           -21.8395750337      -10.4526020821        9.1603800000  MEMB      32              0.0000000000
      3998        32  CHL1      H16A          -22.7369105174      -10.6340051766        8.5309400000  MEMB      32              0.0000000000
      3999        32  CHL1      H16B          -21.5027191376       -9.3941423836        9.1832500000  MEMB      32              0.0000000000
      4000        32  CHL1      C17           -20.6928573502      -11.4195812342        8.8458200000  MEMB      32              0.0000000000
      4001        32  CHL1      H17           -19.7868330789      -10.7854139764        8.9520800000  MEMB      32              0.0000000000
      4002        32  CHL1      C13           -20.4577112350      -12.3042882489       10.1179000000  MEMB      32              0.0000000000
      4003        32  CHL1      C18           -21.2703569704      -13.5030064563        9.9248400000  MEMB      32              0.0000000000
      4004        32  CHL1      H18A          -20.8296064316      -14.1276322525        9.1186700000  MEMB      32              0.0000000000
      4005        32  CHL1      H18B          -21.2827720526      -14.1959162038       10.7932000000  MEMB      32              0.0000000000
      4006        32  CHL1      H18C          -22.3201567846      -13.3031467659        9.6210500000  MEMB      32              0.0000000000
      4007        32  CHL1      C12           -19.0768660995      -12.5659955982       10.5002700000  MEMB      32              0.0000000000
      4008        32  CHL1      H12A          -18.5548187619      -13.1809808700        9.7363400000  MEMB      32              0.0000000000
      4009        32  CHL1      H12B          -18.4241810763      -11.6748528321       10.6193800000  MEMB      32              0.0000000000
      4010        32  CHL1      C11           -19.0393521824      -13.3870619844       11.8560000000  MEMB      32              0.0000000000
      4011        32  CHL1      H11A          -19.3480923686      -14.4531628449       11.8066500000  MEMB      32              0.0000000000
      4012        32  CHL1      H11B          -18.0075303493      -13.4703052891       12.2594000000  MEMB      32              0.0000000000
      4013        32  CHL1      C9            -19.8905890951      -12.6274154291       12.9926500000  MEMB      32              0.0000000000
      4014        32  CHL1      H9            -19.4202445486      -11.6427293047       13.2011800000  MEMB      32              0.0000000000
      4015        32  CHL1      C10           -19.9776349294      -13.3187578725       14.3449800000  MEMB      32              0.0000000000
      4016        32  CHL1      C19           -20.4995649192      -14.8095903195       14.1693900000  MEMB      32              0.0000000000
      4017        32  CHL1      H19A          -20.5854823416      -15.3506792022       15.1359100000  MEMB      32              0.0000000000
      4018        32  CHL1      H19B          -21.5053679898      -14.7554536773       13.7006100000  MEMB      32              0.0000000000
      4019        32  CHL1      H19C          -19.7483744531      -15.2759783855       13.4967100000  MEMB      32              0.0000000000
      4020        32  CHL1      C1            -18.5578438798      -13.2767742892       14.9803100000  MEMB      32              0.0000000000
      4021        32  CHL1      H1A           -17.9406319619      -13.9121826546       14.3097800000  MEMB      32              0.0000000000
      4022        32  CHL1      H1B           -18.2521979455      -12.2143763200       14.8698000000  MEMB      32              0.0000000000
      4023        32  CHL1      C2            -18.3621753965      -13.7277946807       16.4082700000  MEMB      32              0.0000000000
      4024        32  CHL1      H2A           -17.3681428441      -13.4387804626       16.8116200000  MEMB      32              0.0000000000
      4025        32  CHL1      H2B           -18.4761033075      -14.8315637759       16.4632800000  MEMB      32              0.0000000000
      4026        32  CHL1      C20           -20.4596311775      -11.8361618512        7.3576200000  MEMB      32              0.0000000000
      4027        32  CHL1      H20           -20.9810362395      -12.8118159514        7.2548600000  MEMB      32              0.0000000000
      4028        32  CHL1      C21           -18.9764526226      -12.1681934870        7.0788800000  MEMB      32              0.0000000000
      4029        32  CHL1      H21A          -18.6592841937      -12.4867080608        6.0628700000  MEMB      32              0.0000000000
      4030        32  CHL1      H21B          -18.6945313738      -13.0343836075        7.7149400000  MEMB      32              0.0000000000
      4031        32  CHL1      H21C          -18.3589083664      -11.3050633199        7.4074500000  MEMB      32              0.0000000000
      4032        32  CHL1      C22           -20.9919135659      -10.7006201419        6.3294500000  MEMB      32              0.0000000000
      4033        32  CHL1      H22A          -22.0569141870      -10.4519245255        6.5249900000  MEMB      32              0.0000000000
      4034        32  CHL1      H22B          -20.4131121786       -9.8701604982        6.7873300000  MEMB      32              0.0000000000
      4035        32  CHL1      C23           -20.7445614966      -10.9661752591        4.8911700000  MEMB      32              0.0000000000
      4036        32  CHL1      H23A          -19.6827741823      -11.2102144113        4.6734900000  MEMB      32              0.0000000000
      4037        32  CHL1      H23B          -21.3299168080      -11.8630112244        4.5955800000  MEMB      32              0.0000000000
      4038        32  CHL1      C24           -21.0870412577       -9.7716082335        3.9883400000  MEMB      32              0.0000000000
      4039        32  CHL1      H24A          -22.1874444831       -9.7203934911        4.1326100000  MEMB      32              0.0000000000
      4040        32  CHL1      H24B          -20.6503838110       -8.8560470438        4.4415600000  MEMB      32              0.0000000000
      4041        32  CHL1      C25           -20.7246229622       -9.9615452273        2.4719600000  MEMB      32              0.0000000000
      4042        32  CHL1      H25           -20.5020105587      -11.0258968426        2.2440500000  MEMB      32              0.0000000000
      4043        32  CHL1      C26           -21.9898315991       -9.7162161527        1.6394700000  MEMB      32              0.0000000000
      4044        32  CHL1      H26A          -22.8536076770      -10.2448628307        2.0963600000  MEMB      32              0.0000000000
      4045        32  CHL1      H26B          -22.3868462877       -8.6785865403        1.6426200000  MEMB      32              0.0000000000
      4046        32  CHL1      H26C          -21.8571761648      -10.0054229235        0.5750000000  MEMB      32              0.0000000000
      4047        32  CHL1      C27           -19.6497945131       -9.0029109203        2.0669900000  MEMB      32              0.0000000000
      4048        32  CHL1      H27A          -19.2086892902       -9.0701876273        1.0495400000  MEMB      32              0.0000000000
      4049        32  CHL1      H27B          -20.0397381148       -7.9913367915        2.3098400000  MEMB      32              0.0000000000
      4050        32  CHL1      H27C          -18.7485601031       -9.1857385945        2.6904300000  MEMB      32              0.0000000000
      4051        33  23SM      N               9.0790864336      -22.3304537299       27.9073792316  MEMB      33              0.0000000000
      4052        33  23SM      C15             9.6795965226      -23.6325395073       27.4808066341  MEMB      33              0.0000000000
      4053        33  23SM      H15A            9.1343630298      -24.0074947423       26.6272674383  MEMB      33              0.0000000000
      4054        33  23SM      H15B            9.4428089068      -24.2878458655       28.3059765099  MEMB      33              0.0000000000
      4055        33  23SM      H15C           10.7341177796      -23.4785126172       27.3057052445  MEMB      33              0.0000000000
      4056        33  23SM      C14             7.6429381154      -22.5424345629       28.2422072774  MEMB      33              0.0000000000
      4057        33  23SM      H14A            7.1977701572      -23.0856011420       27.4217224183  MEMB      33              0.0000000000
      4058        33  23SM      H14B            7.1616990988      -21.5757022348       28.2576239618  MEMB      33              0.0000000000
      4059        33  23SM      H14C            7.5680216637      -23.1578356594       29.1265540446  MEMB      33              0.0000000000
      4060        33  23SM      C13             9.8259798952      -21.9265389705       29.1672596816  MEMB      33              0.0000000000
      4061        33  23SM      H13A           10.8254407930      -21.7133545351       28.8179310814  MEMB      33              0.0000000000
      4062        33  23SM      H13B            9.9949158748      -22.6865077754       29.9157970097  MEMB      33              0.0000000000
      4063        33  23SM      H13C            9.3570440002      -21.0888037029       29.6619298702  MEMB      33              0.0000000000
      4064        33  23SM      C12             9.3216811748      -21.1282511742       26.9631783862  MEMB      33              0.0000000000
      4065        33  23SM      H12A           10.3861917690      -21.1406138109       26.7813422185  MEMB      33              0.0000000000
      4066        33  23SM      H12B            9.0780379128      -20.2782631688       27.5833059449  MEMB      33              0.0000000000
      4067        33  23SM      C11             8.5491439506      -21.1691797161       25.6226681431  MEMB      33              0.0000000000
      4068        33  23SM      H11A            8.8315730571      -20.1842784618       25.1931055276  MEMB      33              0.0000000000
      4069        33  23SM      H11B            7.4852898081      -20.9090404142       25.8093841819  MEMB      33              0.0000000000
      4070        33  23SM      P               7.6883017477      -23.1322721025       24.1540227307  MEMB      33              0.0000000000
      4071        33  23SM      O13             8.1625116775      -24.5332455649       24.1007785508  MEMB      33              0.0000000000
      4072        33  23SM      O14             6.3654659224      -23.0148103069       24.8272480165  MEMB      33              0.0000000000
      4073        33  23SM      O11             7.6483087173      -22.4558257964       22.6981839341  MEMB      33              0.0000000000
      4074        33  23SM      O12             8.8294986262      -22.2840293699       24.8362674141  MEMB      33              0.0000000000
      4075        33  23SM      C1S             8.6649943344      -21.5776310277       22.2037707481  MEMB      33              0.0000000000
      4076        33  23SM      H1S             9.6865012407      -21.9733809153       22.3887754099  MEMB      33              0.0000000000
      4077        33  23SM      H1T             8.4547445311      -20.5834975190       22.6530086965  MEMB      33              0.0000000000
      4078        33  23SM      NF              9.4042934300      -22.2109228437       19.9466951853  MEMB      33              0.0000000000
      4079        33  23SM      HNF             9.9487384090      -21.7507230499       19.2496982257  MEMB      33              0.0000000000
      4080        33  23SM      C2S             8.4074497360      -21.4734605178       20.6847154864  MEMB      33              0.0000000000
      4081        33  23SM      H2S             7.3950337655      -21.8341708670       20.4032501327  MEMB      33              0.0000000000
      4082        33  23SM      C3S             8.5842580483      -20.0035733871       20.2507026071  MEMB      33              0.0000000000
      4083        33  23SM      H3S             9.4653903893      -19.4674057104       20.6635595204  MEMB      33              0.0000000000
      4084        33  23SM      O3              7.4668656382      -19.3017152444       20.6441414759  MEMB      33              0.0000000000
      4085        33  23SM      HO3             6.8167705890      -19.9128412668       20.9984036117  MEMB      33              0.0000000000
      4086        33  23SM      C4S             8.7017510368      -19.9002730133       18.7508065023  MEMB      33              0.0000000000
      4087        33  23SM      H4S             7.8397852930      -20.2897097610       18.1892428806  MEMB      33              0.0000000000
      4088        33  23SM      C5S             9.7919160845      -19.5665412996       18.0902487921  MEMB      33              0.0000000000
      4089        33  23SM      H5S            10.6782750189      -19.2602847995       18.6652051391  MEMB      33              0.0000000000
      4090        33  23SM      C6S             9.9352040162      -19.5064122852       16.6015489203  MEMB      33              0.0000000000
      4091        33  23SM      H6S            10.0516921790      -18.4522115554       16.2707731082  MEMB      33              0.0000000000
      4092        33  23SM      H6T             8.9563628159      -19.7475652532       16.1346053594  MEMB      33              0.0000000000
      4093        33  23SM      C7S            10.9996226732      -20.3660944262       15.8999841168  MEMB      33              0.0000000000
      4094        33  23SM      H7S            10.9625479900      -21.4677503990       16.0389101604  MEMB      33              0.0000000000
      4095        33  23SM      H7T            11.9688466448      -20.0587849543       16.3477413950  MEMB      33              0.0000000000
      4096        33  23SM      C8S            11.1103921632      -20.1537930817       14.3911074796  MEMB      33              0.0000000000
      4097        33  23SM      H8S            11.0900497701      -19.0567108304       14.2169862226  MEMB      33              0.0000000000
      4098        33  23SM      H8T            10.1746348746      -20.5200030785       13.9172200978  MEMB      33              0.0000000000
      4099        33  23SM      C9S            12.3060763706      -20.6717461621       13.6286010642  MEMB      33              0.0000000000
      4100        33  23SM      H9S            12.1279865874      -21.7254620018       13.3248130559  MEMB      33              0.0000000000
      4101        33  23SM      H9T            13.1666791365      -20.5362695386       14.3180435615  MEMB      33              0.0000000000
      4102        33  23SM      C10S           12.6585879509      -19.8429533750       12.3648966689  MEMB      33              0.0000000000
      4103        33  23SM      H10S           13.6803602991      -20.1535737667       12.0586002664  MEMB      33              0.0000000000
      4104        33  23SM      H10T           12.8901963511      -18.7853823276       12.6143416111  MEMB      33              0.0000000000
      4105        33  23SM      C11S           11.5984689710      -20.0879612311       11.3057563059  MEMB      33              0.0000000000
      4106        33  23SM      H11S           10.7533382346      -19.3859138336       11.4706936418  MEMB      33              0.0000000000
      4107        33  23SM      H11T           11.2462339228      -21.1415384826       11.3208057715  MEMB      33              0.0000000000
      4108        33  23SM      C12S           12.1342004305      -19.8206607268        9.8433941073  MEMB      33              0.0000000000
      4109        33  23SM      H12S           12.9353706150      -20.5691644998        9.6639809157  MEMB      33              0.0000000000
      4110        33  23SM      H12T           12.6002941255      -18.8140857409        9.7810686479  MEMB      33              0.0000000000
      4111        33  23SM      C13S           11.0095711146      -19.9990341863        8.8217653771  MEMB      33              0.0000000000
      4112        33  23SM      H13S           10.5644019847      -18.9829090704        8.8820515991  MEMB      33              0.0000000000
      4113        33  23SM      H13T           10.2620006032      -20.8012271038        9.0004987021  MEMB      33              0.0000000000
      4114        33  23SM      C14S           11.4649045293      -20.3148663373        7.4492037343  MEMB      33              0.0000000000
      4115        33  23SM      H14S           11.7473205555      -21.3887181448        7.4117325723  MEMB      33              0.0000000000
      4116        33  23SM      H14T           12.3761568239      -19.7427320999        7.1724326407  MEMB      33              0.0000000000
      4117        33  23SM      C15S           10.3794168520      -20.1359547229        6.4177133726  MEMB      33              0.0000000000
      4118        33  23SM      H15S            9.8721010016      -19.1636069501        6.5951699420  MEMB      33              0.0000000000
      4119        33  23SM      H15T            9.5685450291      -20.8925271451        6.3513358695  MEMB      33              0.0000000000
      4120        33  23SM      C16S           10.9028243129      -20.0025143096        4.9540708268  MEMB      33              0.0000000000
      4121        33  23SM      H16S           11.6629014768      -19.1922176780        4.9492730679  MEMB      33              0.0000000000
      4122        33  23SM      H16T           10.0915503893      -19.5735878335        4.3278294675  MEMB      33              0.0000000000
      4123        33  23SM      C17S           11.4952410973      -21.1827170444        4.3058700291  MEMB      33              0.0000000000
      4124        33  23SM      H17S           10.6750285468      -21.9172497697        4.1574319350  MEMB      33              0.0000000000
      4125        33  23SM      H17T           12.2176152502      -21.6103953986        5.0335989502  MEMB      33              0.0000000000
      4126        33  23SM      C18S           12.1215084458      -20.8837659594        2.9447475620  MEMB      33              0.0000000000
      4127        33  23SM      H18S           12.6052718648      -21.7368914118        2.4227597814  MEMB      33              0.0000000000
      4128        33  23SM      H18T           12.8609617111      -20.0584577455        3.0247244858  MEMB      33              0.0000000000
      4129        33  23SM      H18U           11.3022180124      -20.4748409415        2.3155693038  MEMB      33              0.0000000000
      4130        33  23SM      C1F             9.6740946442      -23.5537190377       20.0528599927  MEMB      33              0.0000000000
      4131        33  23SM      OF              9.2115073830      -24.3158884110       20.9151209686  MEMB      33              0.0000000000
      4132        33  23SM      C2F            10.6305936935      -24.1701056530       19.0920112988  MEMB      33              0.0000000000
      4133        33  23SM      H2F            11.2761320121      -24.8430302954       19.6959762341  MEMB      33              0.0000000000
      4134        33  23SM      H2G            11.3027891985      -23.3755653212       18.7031929571  MEMB      33              0.0000000000
      4135        33  23SM      C3F             9.9166918797      -24.9850763497       18.0675500183  MEMB      33              0.0000000000
      4136        33  23SM      H3F             9.4871349147      -25.9101752210       18.5079969226  MEMB      33              0.0000000000
      4137        33  23SM      H3G            10.6729969785      -25.3294156692       17.3301532924  MEMB      33              0.0000000000
      4138        33  23SM      C4F             8.8331585921      -24.2246684919       17.2225637617  MEMB      33              0.0000000000
      4139        33  23SM      H4F             9.3591538203      -23.4965748816       16.5687067573  MEMB      33              0.0000000000
      4140        33  23SM      H4G             8.0823527128      -23.8904229177       17.9701545071  MEMB      33              0.0000000000
      4141        33  23SM      C5F             8.1112814041      -25.1402053874       16.1416919579  MEMB      33              0.0000000000
      4142        33  23SM      H5F             7.4434532223      -24.5020444226       15.5243774398  MEMB      33              0.0000000000
      4143        33  23SM      H5G             7.5150079462      -25.9272771643       16.6509033356  MEMB      33              0.0000000000
      4144        33  23SM      C6F             9.0308175573      -25.7157177166       15.0845548870  MEMB      33              0.0000000000
      4145        33  23SM      H6F             9.8343552741      -26.2294075789       15.6544418527  MEMB      33              0.0000000000
      4146        33  23SM      H6G             9.4824335173      -24.8389927605       14.5729723020  MEMB      33              0.0000000000
      4147        33  23SM      C7F             8.4037388470      -26.5821408336       14.0194914270  MEMB      33              0.0000000000
      4148        33  23SM      H7F             7.9248805214      -27.4197580193       14.5703205763  MEMB      33              0.0000000000
      4149        33  23SM      H7G             9.1692090969      -26.9386944758       13.2975182466  MEMB      33              0.0000000000
      4150        33  23SM      C8F             7.1552215949      -26.0186684336       13.2667093280  MEMB      33              0.0000000000
      4151        33  23SM      H8F             6.4349364023      -25.7628293356       14.0729703346  MEMB      33              0.0000000000
      4152        33  23SM      H8G             6.8229261614      -26.7249949225       12.4761381929  MEMB      33              0.0000000000
      4153        33  23SM      C9F             7.4235184320      -24.7704044348       12.3790023078  MEMB      33              0.0000000000
      4154        33  23SM      H9F             8.1629382135      -24.1027641717       12.8707701157  MEMB      33              0.0000000000
      4155        33  23SM      H9G             6.4862486311      -24.1888717507       12.2460878740  MEMB      33              0.0000000000
      4156        33  23SM      C10F            8.1018982870      -25.0901643717       11.0468600956  MEMB      33              0.0000000000
      4157        33  23SM      H10F            7.3913468666      -25.7389242511       10.4913887017  MEMB      33              0.0000000000
      4158        33  23SM      H10G            9.0605621328      -25.6086826437       11.2623211627  MEMB      33              0.0000000000
      4159        33  23SM      C11F            8.4508822303      -23.7928424914       10.1553437457  MEMB      33              0.0000000000
      4160        33  23SM      H11F            9.1298604687      -23.2588061343       10.8539950092  MEMB      33              0.0000000000
      4161        33  23SM      H11G            7.5274440170      -23.1806017716       10.0732204944  MEMB      33              0.0000000000
      4162        33  23SM      C12F            9.0763022635      -24.0546035532        8.7367140628  MEMB      33              0.0000000000
      4163        33  23SM      H12F           10.0336597096      -24.6127666491        8.8157181674  MEMB      33              0.0000000000
      4164        33  23SM      H12G            9.2773223238      -23.0829229380        8.2369651400  MEMB      33              0.0000000000
      4165        33  23SM      C13F            8.1038285202      -24.6654714976        7.7881407102  MEMB      33              0.0000000000
      4166        33  23SM      H13F            7.3142024092      -23.8919698782        7.6763072926  MEMB      33              0.0000000000
      4167        33  23SM      H13G            7.5741649226      -25.5432375468        8.2162806816  MEMB      33              0.0000000000
      4168        33  23SM      C14F            8.6502274893      -24.8297779897        6.3710137730  MEMB      33              0.0000000000
      4169        33  23SM      H14F            9.1890235840      -23.9306610496        6.0027628970  MEMB      33              0.0000000000
      4170        33  23SM      H14G            7.9694030515      -25.2793411083        5.6168980470  MEMB      33              0.0000000000
      4171        33  23SM      C15F            9.8716642858      -25.8478718517        6.2554727225  MEMB      33              0.0000000000
      4172        33  23SM      H15F            9.4796870354      -26.8844088537        6.1763185901  MEMB      33              0.0000000000
      4173        33  23SM      H15G           10.5296657153      -25.6901648768        7.1366545660  MEMB      33              0.0000000000
      4174        33  23SM      C16F           10.6372922478      -25.5942298617        4.9531892809  MEMB      33              0.0000000000
      4175        33  23SM      H16F           11.5803975187      -26.1454588511        4.7506552456  MEMB      33              0.0000000000
      4176        33  23SM      H16G           10.9195865015      -24.5387097418        4.7519228776  MEMB      33              0.0000000000
      4177        33  23SM      C17F            9.8001922642      -25.9309606581        3.6761550664  MEMB      33              0.0000000000
      4178        33  23SM      H17F            8.9698198153      -25.2029845516        3.5542804510  MEMB      33              0.0000000000
      4179        33  23SM      H17G            9.4019013443      -26.9679855722        3.6924257186  MEMB      33              0.0000000000
      4180        33  23SM      C18F           10.4574786844      -25.6549470904        2.2858359828  MEMB      33              0.0000000000
      4181        33  23SM      H18F           11.2664774818      -26.4140904787        2.2263132071  MEMB      33              0.0000000000
      4182        33  23SM      H18G           10.9167241611      -24.6448966405        2.2291553186  MEMB      33              0.0000000000
      4183        33  23SM      C19F            9.4413057575      -25.7149712086        1.1351307584  MEMB      33              0.0000000000
      4184        33  23SM      H19F            8.4944319827      -25.1611062939        1.3111569006  MEMB      33              0.0000000000
      4185        33  23SM      H19G            9.2509217918      -26.8092598787        1.1597772285  MEMB      33              0.0000000000
      4186        33  23SM      C20F            9.9717143638      -25.2458858021       -0.1988054874  MEMB      33              0.0000000000
      4187        33  23SM      H20F           10.9194161010      -25.7433796022       -0.4966010976  MEMB      33              0.0000000000
      4188        33  23SM      H20G           10.2805573262      -24.1787837777       -0.2139808175  MEMB      33              0.0000000000
      4189        33  23SM      C21F            8.9285627960      -25.5115323636       -1.3611347275  MEMB      33              0.0000000000
      4190        33  23SM      H21F            7.9548752915      -25.7147516438       -0.8662056306  MEMB      33              0.0000000000
      4191        33  23SM      H21G            9.1772633878      -26.4339933448       -1.9281757118  MEMB      33              0.0000000000
      4192        33  23SM      C22F            8.7534269325      -24.3347830941       -2.4018134743  MEMB      33              0.0000000000
      4193        33  23SM      H22F            8.0609074028      -24.6769299740       -3.2003569073  MEMB      33              0.0000000000
      4194        33  23SM      H22G            9.7110961884      -24.0777770719       -2.9029506965  MEMB      33              0.0000000000
      4195        33  23SM      C23F            7.9365471552      -23.0904552269       -1.8900770513  MEMB      33              0.0000000000
      4196        33  23SM      H23F            7.5969635107      -22.4511653436       -2.7328777853  MEMB      33              0.0000000000
      4197        33  23SM      H23G            8.6617581296      -22.4864790420       -1.3039002853  MEMB      33              0.0000000000
      4198        33  23SM      H23H            7.0916086515      -23.3094075554       -1.2027211575  MEMB      33              0.0000000000
      4199        34  CHL1      C3              2.2045252914       24.4532248367       17.3604750000  MEMB      34              0.0000000000
      4200        34  CHL1      H3              2.6077190696       23.4239660992       17.4717550000  MEMB      34              0.0000000000
      4201        34  CHL1      O3              1.9299842886       24.9176569633       18.6395250000  MEMB      34              0.0000000000
      4202        34  CHL1      H3'             2.7556134027       24.7520263368       19.1005150000  MEMB      34              0.0000000000
      4203        34  CHL1      C4              3.1991886495       25.4590245841       16.7270850000  MEMB      34              0.0000000000
      4204        34  CHL1      H4A             2.9481385182       26.5097461248       16.9864850000  MEMB      34              0.0000000000
      4205        34  CHL1      H4B             4.1198179962       25.1816205694       17.2836850000  MEMB      34              0.0000000000
      4206        34  CHL1      C5              3.4999258640       25.1581178261       15.2941050000  MEMB      34              0.0000000000
      4207        34  CHL1      C6              4.7515878397       24.8816928348       14.9341550000  MEMB      34              0.0000000000
      4208        34  CHL1      H6              5.5317960014       24.9204590377       15.7086050000  MEMB      34              0.0000000000
      4209        34  CHL1      C7              5.2306463199       24.7469338757       13.5170650000  MEMB      34              0.0000000000
      4210        34  CHL1      H7A             5.8871225868       25.6189757540       13.3099750000  MEMB      34              0.0000000000
      4211        34  CHL1      H7B             5.7517213664       23.8056156613       13.2400750000  MEMB      34              0.0000000000
      4212        34  CHL1      C8              4.1071990477       25.0863314061       12.4784650000  MEMB      34              0.0000000000
      4213        34  CHL1      H8              4.2177387712       26.1917908770       12.4711850000  MEMB      34              0.0000000000
      4214        34  CHL1      C14             4.3815458255       24.5596564359       11.0682250000  MEMB      34              0.0000000000
      4215        34  CHL1      H14             4.1712245710       23.4689734889       11.0459150000  MEMB      34              0.0000000000
      4216        34  CHL1      C15             5.8139963588       24.7822332762       10.5406250000  MEMB      34              0.0000000000
      4217        34  CHL1      H15A            6.1732550465       25.8147643401       10.7384750000  MEMB      34              0.0000000000
      4218        34  CHL1      H15B            6.5655264693       24.1194827521       11.0205050000  MEMB      34              0.0000000000
      4219        34  CHL1      C16             5.6312842094       24.7239825789        9.0490350000  MEMB      34              0.0000000000
      4220        34  CHL1      H16A            6.1709177121       25.5910086562        8.6115450000  MEMB      34              0.0000000000
      4221        34  CHL1      H16B            5.9571114351       23.7596571878        8.6037950000  MEMB      34              0.0000000000
      4222        34  CHL1      C17             4.1082825751       24.6614397041        8.8122750000  MEMB      34              0.0000000000
      4223        34  CHL1      H17             3.9076479094       23.5815644995        8.6451450000  MEMB      34              0.0000000000
      4224        34  CHL1      C13             3.3864946926       25.1449096484       10.0686550000  MEMB      34              0.0000000000
      4225        34  CHL1      C18             3.4229548060       26.7148769799       10.0600050000  MEMB      34              0.0000000000
      4226        34  CHL1      H18A            3.1753372154       27.1558123010       11.0492350000  MEMB      34              0.0000000000
      4227        34  CHL1      H18B            4.4430898309       27.0564262055        9.7825250000  MEMB      34              0.0000000000
      4228        34  CHL1      H18C            2.6823637530       27.1273117915        9.3418650000  MEMB      34              0.0000000000
      4229        34  CHL1      C12             1.9487066004       24.6289078975       10.3980850000  MEMB      34              0.0000000000
      4230        34  CHL1      H12A            1.1572043026       25.1476825669        9.8160950000  MEMB      34              0.0000000000
      4231        34  CHL1      H12B            1.9261065380       23.5431341809       10.1637550000  MEMB      34              0.0000000000
      4232        34  CHL1      C11             1.5898091547       24.9066632754       11.8438250000  MEMB      34              0.0000000000
      4233        34  CHL1      H11A            1.4359295491       26.0069172391       11.8525850000  MEMB      34              0.0000000000
      4234        34  CHL1      H11B            0.6346980304       24.4605866618       12.1946850000  MEMB      34              0.0000000000
      4235        34  CHL1      C9              2.7528848263       24.6516975764       12.9522050000  MEMB      34              0.0000000000
      4236        34  CHL1      H9              2.8288918714       23.5528373150       13.0972550000  MEMB      34              0.0000000000
      4237        34  CHL1      C10             2.3466342594       25.2438501498       14.3070750000  MEMB      34              0.0000000000
      4238        34  CHL1      C19             2.0002202235       26.7364876276       14.1937550000  MEMB      34              0.0000000000
      4239        34  CHL1      H19A            1.0812688570       26.7837907201       13.5711850000  MEMB      34              0.0000000000
      4240        34  CHL1      H19B            1.6378586281       27.1021332192       15.1782950000  MEMB      34              0.0000000000
      4241        34  CHL1      H19C            2.8115176132       27.3852015195       13.7996750000  MEMB      34              0.0000000000
      4242        34  CHL1      C1              1.2324518232       24.3560523229       14.9684550000  MEMB      34              0.0000000000
      4243        34  CHL1      H1A             0.3320797707       24.6880460933       14.4086150000  MEMB      34              0.0000000000
      4244        34  CHL1      H1B             1.5328386660       23.2905963972       14.8741850000  MEMB      34              0.0000000000
      4245        34  CHL1      C2              0.8795685535       24.4766137948       16.5035650000  MEMB      34              0.0000000000
      4246        34  CHL1      H2A             0.1459175547       23.6928460126       16.7895750000  MEMB      34              0.0000000000
      4247        34  CHL1      H2B             0.4417695030       25.4882184980       16.6424950000  MEMB      34              0.0000000000
      4248        34  CHL1      C20             3.8677316762       25.3459692795        7.3979550000  MEMB      34              0.0000000000
      4249        34  CHL1      H20             4.2052869785       26.3872199971        7.5881450000  MEMB      34              0.0000000000
      4250        34  CHL1      C21             2.4476706466       25.1155867362        6.8919650000  MEMB      34              0.0000000000
      4251        34  CHL1      H21A            2.3429337102       24.0466290963        6.6079250000  MEMB      34              0.0000000000
      4252        34  CHL1      H21B            2.2290351189       25.7167383727        5.9835950000  MEMB      34              0.0000000000
      4253        34  CHL1      H21C            1.7638462279       25.4701800468        7.6925650000  MEMB      34              0.0000000000
      4254        34  CHL1      C22             4.7648731784       24.6812250938        6.3139250000  MEMB      34              0.0000000000
      4255        34  CHL1      H22A            5.8095570031       24.4747427895        6.6306550000  MEMB      34              0.0000000000
      4256        34  CHL1      H22B            4.2432662307       23.7588562075        5.9800550000  MEMB      34              0.0000000000
      4257        34  CHL1      C23             4.8772198386       25.5320359121        5.0868950000  MEMB      34              0.0000000000
      4258        34  CHL1      H23A            3.9030956912       25.9682109141        4.7784450000  MEMB      34              0.0000000000
      4259        34  CHL1      H23B            5.4912401119       26.3823083370        5.4534050000  MEMB      34              0.0000000000
      4260        34  CHL1      C24             5.6193986369       24.9745836148        3.8885650000  MEMB      34              0.0000000000
      4261        34  CHL1      H24A            6.6315183303       24.5908082949        4.1388450000  MEMB      34              0.0000000000
      4262        34  CHL1      H24B            4.9737156623       24.2247207041        3.3834750000  MEMB      34              0.0000000000
      4263        34  CHL1      C25             5.7902154808       26.0483874107        2.7509950000  MEMB      34              0.0000000000
      4264        34  CHL1      H25             6.1981427384       26.9429088456        3.2684550000  MEMB      34              0.0000000000
      4265        34  CHL1      C26             6.8765855963       25.5932752587        1.7984750000  MEMB      34              0.0000000000
      4266        34  CHL1      H26A            7.2404499570       26.4228570691        1.1552650000  MEMB      34              0.0000000000
      4267        34  CHL1      H26B            7.7365277238       25.2149805847        2.3915250000  MEMB      34              0.0000000000
      4268        34  CHL1      H26C            6.5991260424       24.8103129866        1.0607150000  MEMB      34              0.0000000000
      4269        34  CHL1      C27             4.5160476741       26.2735964546        1.9280350000  MEMB      34              0.0000000000
      4270        34  CHL1      H27A            4.7959203576       27.0647479028        1.1999750000  MEMB      34              0.0000000000
      4271        34  CHL1      H27B            4.2674588940       25.3589783606        1.3483750000  MEMB      34              0.0000000000
      4272        34  CHL1      H27C            3.6224170038       26.5802124184        2.5126050000  MEMB      34              0.0000000000
      4273        35  DOPC      N              22.3553531011       11.3130811794       21.1178967029  MEMB      35              0.0000000000
      4274        35  DOPC      C12            21.2560459165       11.7113575444       20.0623516437  MEMB      35              0.0000000000
      4275        35  DOPC      H12A           20.5344507846       12.3067907845       20.6019436221  MEMB      35              0.0000000000
      4276        35  DOPC      H12B           20.7386558752       10.7995244918       19.8029908498  MEMB      35              0.0000000000
      4277        35  DOPC      C13            23.1598232691       12.5295709485       21.2941845612  MEMB      35              0.0000000000
      4278        35  DOPC      H13A           24.1011112178       12.4588231140       21.8189432292  MEMB      35              0.0000000000
      4279        35  DOPC      H13B           23.3437789685       13.0453969687       20.3633333536  MEMB      35              0.0000000000
      4280        35  DOPC      H13C           22.5757535698       13.1711323334       21.9373498617  MEMB      35              0.0000000000
      4281        35  DOPC      C14            23.1175824177       10.2040035724       20.5383752847  MEMB      35              0.0000000000
      4282        35  DOPC      H14A           22.4923391056        9.3336852850       20.4041489900  MEMB      35              0.0000000000
      4283        35  DOPC      H14B           23.4566804097       10.4179573765       19.5355611415  MEMB      35              0.0000000000
      4284        35  DOPC      H14C           23.9262337922        9.9198883708       21.1954609178  MEMB      35              0.0000000000
      4285        35  DOPC      C15            21.6249655474       10.9581922366       22.3400282765  MEMB      35              0.0000000000
      4286        35  DOPC      H15A           21.0395202796       10.0686415487       22.1601574932  MEMB      35              0.0000000000
      4287        35  DOPC      H15B           21.0475626903       11.8072988888       22.6747277990  MEMB      35              0.0000000000
      4288        35  DOPC      H15C           22.3624181054       10.7392051078       23.0980574074  MEMB      35              0.0000000000
      4289        35  DOPC      C11            21.5357588015       12.5899729702       18.8105948668  MEMB      35              0.0000000000
      4290        35  DOPC      H11A           20.6927035332       12.5614036242       18.0875715884  MEMB      35              0.0000000000
      4291        35  DOPC      H11B           21.3768648277       13.6245969416       19.1829215071  MEMB      35              0.0000000000
      4292        35  DOPC      P              22.8403217200       11.5619340354       16.9576479363  MEMB      35              0.0000000000
      4293        35  DOPC      O13            22.7084841540       10.0969795343       17.3397781882  MEMB      35              0.0000000000
      4294        35  DOPC      O14            24.0365710735       11.9474938221       16.1561133998  MEMB      35              0.0000000000
      4295        35  DOPC      O12            22.8466124877       12.3994501530       18.2845274675  MEMB      35              0.0000000000
      4296        35  DOPC      O11            21.6594316164       12.1368877992       16.0985016474  MEMB      35              0.0000000000
      4297        35  DOPC      C1             20.4361487024       11.4649179950       15.8208387600  MEMB      35              0.0000000000
      4298        35  DOPC      HA             19.6246476722       12.1197919360       16.2041496768  MEMB      35              0.0000000000
      4299        35  DOPC      HB             20.4144740633       10.5001353097       16.3713345862  MEMB      35              0.0000000000
      4300        35  DOPC      C2             20.2168739839       11.1701494301       14.3612086492  MEMB      35              0.0000000000
      4301        35  DOPC      HS             19.3052792906       10.5478964317       14.2342546840  MEMB      35              0.0000000000
      4302        35  DOPC      O21            21.3872340285       10.6569363520       13.7027050257  MEMB      35              0.0000000000
      4303        35  DOPC      C21            21.2561206912        9.8373926798       12.6445931986  MEMB      35              0.0000000000
      4304        35  DOPC      O22            20.2162415153        9.6571288015       12.0837171398  MEMB      35              0.0000000000
      4305        35  DOPC      C22            22.5796405223        9.1217948587       12.2560738554  MEMB      35              0.0000000000
      4306        35  DOPC      H2R            22.8411197786        8.5885169084       13.1949906666  MEMB      35              0.0000000000
      4307        35  DOPC      H2S            23.3526854078        9.9193551180       12.2311663692  MEMB      35              0.0000000000
      4308        35  DOPC      C3             19.8453134471       12.4523178797       13.5476376891  MEMB      35              0.0000000000
      4309        35  DOPC      HX             18.8265670709       12.6183394441       13.9586283984  MEMB      35              0.0000000000
      4310        35  DOPC      HY             19.6567286769       12.2337056700       12.4748070588  MEMB      35              0.0000000000
      4311        35  DOPC      O31            20.6968838094       13.4876240875       13.8886580952  MEMB      35              0.0000000000
      4312        35  DOPC      C31            21.6463253924       13.7706056795       12.9095975665  MEMB      35              0.0000000000
      4313        35  DOPC      O32            21.7093981226       13.2240095565       11.8585646248  MEMB      35              0.0000000000
      4314        35  DOPC      C32            22.5739278045       14.9458163406       13.4156461747  MEMB      35              0.0000000000
      4315        35  DOPC      H2X            21.8820750919       15.7890462796       13.6268908766  MEMB      35              0.0000000000
      4316        35  DOPC      H2Y            23.1040910262       14.4311007725       14.2452946142  MEMB      35              0.0000000000
      4317        35  DOPC      C23            22.4537643040        8.2575719450       11.0161653790  MEMB      35              0.0000000000
      4318        35  DOPC      H3R            21.5759424582        7.5827833101       10.9244562255  MEMB      35              0.0000000000
      4319        35  DOPC      H3S            23.3996386547        7.6786785083       10.9488946155  MEMB      35              0.0000000000
      4320        35  DOPC      C24            22.6429262333        9.0994290484        9.7131169682  MEMB      35              0.0000000000
      4321        35  DOPC      H4R            23.5409969318        9.7532298482        9.6948276817  MEMB      35              0.0000000000
      4322        35  DOPC      H4S            21.7203008945        9.7069106147        9.5945859422  MEMB      35              0.0000000000
      4323        35  DOPC      C25            22.8379816821        8.3508052557        8.3252799813  MEMB      35              0.0000000000
      4324        35  DOPC      H5R            21.9561834446        7.6778689633        8.3878074307  MEMB      35              0.0000000000
      4325        35  DOPC      H5S            23.7513954971        7.7196598710        8.3659204143  MEMB      35              0.0000000000
      4326        35  DOPC      C26            22.9315092067        9.1657408909        7.0413354532  MEMB      35              0.0000000000
      4327        35  DOPC      H6R            23.8842160682        9.7368587259        7.0635925647  MEMB      35              0.0000000000
      4328        35  DOPC      H6S            22.0534008848        9.8433200631        7.1056264890  MEMB      35              0.0000000000
      4329        35  DOPC      C27            22.9061017976        8.2470850387        5.7438123270  MEMB      35              0.0000000000
      4330        35  DOPC      H7R            22.0189494412        7.5828912831        5.6655265352  MEMB      35              0.0000000000
      4331        35  DOPC      H7S            23.7462128419        7.5260539104        5.8368099736  MEMB      35              0.0000000000
      4332        35  DOPC      C28            23.0206495018        9.1396958268        4.4980289408  MEMB      35              0.0000000000
      4333        35  DOPC      H8R            23.9715464520        9.7139056201        4.5180032122  MEMB      35              0.0000000000
      4334        35  DOPC      H8S            22.2848148504        9.9640755849        4.6132076510  MEMB      35              0.0000000000
      4335        35  DOPC      C29            22.8388067206        8.4345567773        3.1617540688  MEMB      35              0.0000000000
      4336        35  DOPC      H9R            23.7279035194        7.8395219894        2.9059398790  MEMB      35              0.0000000000
      4337        35  DOPC      C210           21.8482558029        8.5132043499        2.2893787091  MEMB      35              0.0000000000
      4338        35  DOPC      H10R           21.7887305565        7.8017454545        1.4525498546  MEMB      35              0.0000000000
      4339        35  DOPC      C211           20.5931682391        9.4048902855        2.5186806215  MEMB      35              0.0000000000
      4340        35  DOPC      H11R           20.6559339951        9.7524406687        3.5720520556  MEMB      35              0.0000000000
      4341        35  DOPC      H11S           19.7100335237        8.7315522790        2.4869001425  MEMB      35              0.0000000000
      4342        35  DOPC      C212           20.5163009024       10.5607657919        1.5466591794  MEMB      35              0.0000000000
      4343        35  DOPC      H12R           20.5332725655       10.3480450083        0.4563476755  MEMB      35              0.0000000000
      4344        35  DOPC      H12S           21.3992371252       11.2304070582        1.6261903333  MEMB      35              0.0000000000
      4345        35  DOPC      C213           19.4839585443       11.5810733619        2.0160124777  MEMB      35              0.0000000000
      4346        35  DOPC      H13R           19.7218188838       11.9960237720        3.0187883577  MEMB      35              0.0000000000
      4347        35  DOPC      H13S           18.6345198949       10.9129680625        2.2737145155  MEMB      35              0.0000000000
      4348        35  DOPC      C214           19.2001715828       12.7092735019        1.0006193790  MEMB      35              0.0000000000
      4349        35  DOPC      H14R           19.6964510582       12.4630010594        0.0376147258  MEMB      35              0.0000000000
      4350        35  DOPC      H14S           19.5866523527       13.7031011427        1.3124845491  MEMB      35              0.0000000000
      4351        35  DOPC      C215           17.7020927393       12.8410755817        0.7680810180  MEMB      35              0.0000000000
      4352        35  DOPC      H15R           17.4448248979       13.9028049909        0.5659286912  MEMB      35              0.0000000000
      4353        35  DOPC      H15S           17.1623115934       12.5238396372        1.6858589900  MEMB      35              0.0000000000
      4354        35  DOPC      C216           17.1539803190       11.9551502965       -0.4249137861  MEMB      35              0.0000000000
      4355        35  DOPC      H16R           16.0647993269       11.7893380640       -0.2816917021  MEMB      35              0.0000000000
      4356        35  DOPC      H16S           17.7438245372       11.0143813768       -0.4617716994  MEMB      35              0.0000000000
      4357        35  DOPC      C217           17.3094624533       12.6863505141       -1.7445333878  MEMB      35              0.0000000000
      4358        35  DOPC      H17R           18.3795966546       12.9848509487       -1.7389456695  MEMB      35              0.0000000000
      4359        35  DOPC      H17S           16.6625106468       13.5894276741       -1.7295153639  MEMB      35              0.0000000000
      4360        35  DOPC      C218           16.9346833203       11.9327532277       -2.9779315779  MEMB      35              0.0000000000
      4361        35  DOPC      H18R           16.0244651721       11.3410643578       -2.7418640662  MEMB      35              0.0000000000
      4362        35  DOPC      H18S           17.6953712841       11.1320049441       -3.0982520550  MEMB      35              0.0000000000
      4363        35  DOPC      H18T           16.9192115550       12.5411344203       -3.9074227771  MEMB      35              0.0000000000
      4364        35  DOPC      C33            23.4973779036       15.2675243641       12.2446456264  MEMB      35              0.0000000000
      4365        35  DOPC      H3X            24.0779667124       14.3657925051       11.9546161753  MEMB      35              0.0000000000
      4366        35  DOPC      H3Y            24.2362051143       15.9220762666       12.7545642725  MEMB      35              0.0000000000
      4367        35  DOPC      C34            22.8406242061       16.1084942442       11.1331240388  MEMB      35              0.0000000000
      4368        35  DOPC      H4X            22.5770995515       17.0093594601       11.7275291306  MEMB      35              0.0000000000
      4369        35  DOPC      H4Y            21.8202082306       15.7387401018       10.8957335958  MEMB      35              0.0000000000
      4370        35  DOPC      C35            23.7570389997       16.6132617181       10.0052285462  MEMB      35              0.0000000000
      4371        35  DOPC      H5X            24.7652934609       16.7159681852       10.4604159539  MEMB      35              0.0000000000
      4372        35  DOPC      H5Y            23.3962589954       17.5469020123        9.5230722653  MEMB      35              0.0000000000
      4373        35  DOPC      C36            23.8744848985       15.6328206583        8.7856860557  MEMB      35              0.0000000000
      4374        35  DOPC      H6X            24.3507414947       16.1222112431        7.9093312259  MEMB      35              0.0000000000
      4375        35  DOPC      H6Y            24.5511982386       14.7908791318        9.0455219435  MEMB      35              0.0000000000
      4376        35  DOPC      C37            22.4270061984       15.1040725094        8.4274619787  MEMB      35              0.0000000000
      4377        35  DOPC      H7X            22.2092595422       14.2110319857        9.0514707628  MEMB      35              0.0000000000
      4378        35  DOPC      H7Y            21.6664907835       15.8873816982        8.6332873828  MEMB      35              0.0000000000
      4379        35  DOPC      C38            22.4732717765       14.5664658657        6.9885176487  MEMB      35              0.0000000000
      4380        35  DOPC      H8X            22.4161934302       15.4290821672        6.2906953973  MEMB      35              0.0000000000
      4381        35  DOPC      H8Y            21.5029774762       14.0508649088        6.8241839683  MEMB      35              0.0000000000
      4382        35  DOPC      C39            23.6651575844       13.6441867936        6.7668461486  MEMB      35              0.0000000000
      4383        35  DOPC      H9X            23.7237797503       12.8032660224        7.4735397139  MEMB      35              0.0000000000
      4384        35  DOPC      C310           24.7136028770       13.7737532866        5.9573115848  MEMB      35              0.0000000000
      4385        35  DOPC      H10X           25.5139869956       13.0191773612        5.9563886253  MEMB      35              0.0000000000
      4386        35  DOPC      C311           24.8553925728       14.9185508656        5.0779523643  MEMB      35              0.0000000000
      4387        35  DOPC      H11X           25.7271628544       15.5608210985        5.3266021889  MEMB      35              0.0000000000
      4388        35  DOPC      H11Y           24.0102117266       15.6382679428        5.0332566336  MEMB      35              0.0000000000
      4389        35  DOPC      C312           25.0556330085       14.4993773553        3.6335328432  MEMB      35              0.0000000000
      4390        35  DOPC      H12X           26.0050818999       13.9708386395        3.4021999277  MEMB      35              0.0000000000
      4391        35  DOPC      H12Y           24.9533073208       15.4541718165        3.0747684203  MEMB      35              0.0000000000
      4392        35  DOPC      C313           23.9192920522       13.4230863756        3.1358868727  MEMB      35              0.0000000000
      4393        35  DOPC      H13X           24.0260118437       12.6151779784        3.8910126882  MEMB      35              0.0000000000
      4394        35  DOPC      H13Y           22.9448335983       13.9546179608        3.1830683128  MEMB      35              0.0000000000
      4395        35  DOPC      C314           24.2427835120       12.7961905746        1.7486530718  MEMB      35              0.0000000000
      4396        35  DOPC      H14X           25.2362748478       12.3025264291        1.8085875690  MEMB      35              0.0000000000
      4397        35  DOPC      H14Y           23.5186451661       11.9548762438        1.7024497992  MEMB      35              0.0000000000
      4398        35  DOPC      C315           23.9834194222       13.7496103312        0.5594326160  MEMB      35              0.0000000000
      4399        35  DOPC      H15X           24.6500123873       13.5120362624       -0.2970336857  MEMB      35              0.0000000000
      4400        35  DOPC      H15Y           24.0981903509       14.7477794216        1.0335717904  MEMB      35              0.0000000000
      4401        35  DOPC      C316           22.5591689752       13.5991143429       -0.0369049063  MEMB      35              0.0000000000
      4402        35  DOPC      H16X           22.5927377976       12.6167832108       -0.5548048258  MEMB      35              0.0000000000
      4403        35  DOPC      H16Y           21.8355782878       13.6386725190        0.8052182504  MEMB      35              0.0000000000
      4404        35  DOPC      C317           22.1500546783       14.5609394737       -1.1681381562  MEMB      35              0.0000000000
      4405        35  DOPC      H17X           21.0649299694       14.7227820741       -1.3431573113  MEMB      35              0.0000000000
      4406        35  DOPC      H17Y           22.4639627066       15.5485304738       -0.7675794994  MEMB      35              0.0000000000
      4407        35  DOPC      C318           22.8186930168       14.2065799300       -2.5501000679  MEMB      35              0.0000000000
      4408        35  DOPC      H18X           22.5609412182       15.0482701042       -3.2279225186  MEMB      35              0.0000000000
      4409        35  DOPC      H18Y           23.9073261213       14.0437476261       -2.3994851785  MEMB      35              0.0000000000
      4410        35  DOPC      H18Z           22.3982292778       13.2251829161       -2.8573315592  MEMB      35              0.0000000000
      4411        36  CHL1      C3             22.1181041624      -13.5687403550       17.3230300000  MEMB      36              0.0000000000
      4412        36  CHL1      H3             21.2406643830      -13.9151859257       16.7361700000  MEMB      36              0.0000000000
      4413        36  CHL1      O3             21.8565134376      -13.9566556450       18.6769700000  MEMB      36              0.0000000000
      4414        36  CHL1      H3'            21.0871727485      -13.4316482125       18.9095400000  MEMB      36              0.0000000000
      4415        36  CHL1      C4             23.4339321787      -14.2433865064       16.8078500000  MEMB      36              0.0000000000
      4416        36  CHL1      H4A            24.3305556450      -13.8588799759       17.3394000000  MEMB      36              0.0000000000
      4417        36  CHL1      H4B            23.3017304719      -15.3185980698       17.0543500000  MEMB      36              0.0000000000
      4418        36  CHL1      C5             23.4456977774      -14.0119413775       15.2909000000  MEMB      36              0.0000000000
      4419        36  CHL1      C6             23.3702961371      -15.0045154449       14.3776200000  MEMB      36              0.0000000000
      4420        36  CHL1      H6             23.3739462385      -16.0653772795       14.6684200000  MEMB      36              0.0000000000
      4421        36  CHL1      C7             23.4772266282      -14.8134314763       12.8972300000  MEMB      36              0.0000000000
      4422        36  CHL1      H7A            24.1792322942      -15.4944735764       12.3702600000  MEMB      36              0.0000000000
      4423        36  CHL1      H7B            22.4864545399      -15.1137578074       12.4941400000  MEMB      36              0.0000000000
      4424        36  CHL1      C8             23.8085749112      -13.2890458210       12.4784600000  MEMB      36              0.0000000000
      4425        36  CHL1      H8             24.9042138726      -13.1727453026       12.6211800000  MEMB      36              0.0000000000
      4426        36  CHL1      C14            23.3782294340      -13.1603479109       11.0149700000  MEMB      36              0.0000000000
      4427        36  CHL1      H14            22.3198372385      -13.4817399204       10.9109400000  MEMB      36              0.0000000000
      4428        36  CHL1      C15            24.1885145069      -13.9628905791       10.0349300000  MEMB      36              0.0000000000
      4429        36  CHL1      H15A           25.2831963112      -13.8134141500       10.1517100000  MEMB      36              0.0000000000
      4430        36  CHL1      H15B           23.8270710436      -15.0078982806       10.1428100000  MEMB      36              0.0000000000
      4431        36  CHL1      C16            23.6313799094      -13.3060721223        8.7577300000  MEMB      36              0.0000000000
      4432        36  CHL1      H16A           24.5870947950      -13.1187790365        8.2230900000  MEMB      36              0.0000000000
      4433        36  CHL1      H16B           22.9657995368      -13.9854782489        8.1835000000  MEMB      36              0.0000000000
      4434        36  CHL1      C17            22.8323541087      -11.9952766363        9.1098600000  MEMB      36              0.0000000000
      4435        36  CHL1      H17            21.7726778541      -12.3289038080        9.0990500000  MEMB      36              0.0000000000
      4436        36  CHL1      C13            23.3489178168      -11.6767812160       10.5057500000  MEMB      36              0.0000000000
      4437        36  CHL1      C18            24.8911099382      -11.1555669801       10.4307500000  MEMB      36              0.0000000000
      4438        36  CHL1      H18A           24.9809450993      -10.0506727904       10.3568100000  MEMB      36              0.0000000000
      4439        36  CHL1      H18B           25.4780631009      -11.5456631355       11.2896100000  MEMB      36              0.0000000000
      4440        36  CHL1      H18C           25.4298062998      -11.5727920951        9.5532300000  MEMB      36              0.0000000000
      4441        36  CHL1      C12            22.4818790672      -10.8434144469       11.4171400000  MEMB      36              0.0000000000
      4442        36  CHL1      H12A           22.3944263232       -9.8110685288       11.0159600000  MEMB      36              0.0000000000
      4443        36  CHL1      H12B           21.5318797440      -11.4126887006       11.5051900000  MEMB      36              0.0000000000
      4444        36  CHL1      C11            23.1504903033      -10.8100174800       12.7831600000  MEMB      36              0.0000000000
      4445        36  CHL1      H11A           24.1636587576      -10.3624794058       12.6963600000  MEMB      36              0.0000000000
      4446        36  CHL1      H11B           22.5361465360      -10.1782554013       13.4597600000  MEMB      36              0.0000000000
      4447        36  CHL1      C9             23.0536592953      -12.2999755265       13.3778400000  MEMB      36              0.0000000000
      4448        36  CHL1      H9             21.9602166905      -12.4957172686       13.3579100000  MEMB      36              0.0000000000
      4449        36  CHL1      C10            23.4466031075      -12.4907866514       14.8936600000  MEMB      36              0.0000000000
      4450        36  CHL1      C19            24.9248188513      -11.9095114342       15.0999700000  MEMB      36              0.0000000000
      4451        36  CHL1      H19A           25.6517560260      -12.6463031126       14.6962100000  MEMB      36              0.0000000000
      4452        36  CHL1      H19B           24.9994929804      -10.9331601541       14.5751100000  MEMB      36              0.0000000000
      4453        36  CHL1      H19C           25.1731810014      -11.7912047438       16.1763700000  MEMB      36              0.0000000000
      4454        36  CHL1      C1             22.3768184727      -11.6251238425       15.7072100000  MEMB      36              0.0000000000
      4455        36  CHL1      H1A            22.6210671265      -10.5450830904       15.6167800000  MEMB      36              0.0000000000
      4456        36  CHL1      H1B            21.3916156949      -11.8059679583       15.2266000000  MEMB      36              0.0000000000
      4457        36  CHL1      C2             22.2253736225      -12.0273372026       17.2199800000  MEMB      36              0.0000000000
      4458        36  CHL1      H2A            21.2109207439      -11.6410370843       17.4565700000  MEMB      36              0.0000000000
      4459        36  CHL1      H2B            23.0335397644      -11.6117761080       17.8591200000  MEMB      36              0.0000000000
      4460        36  CHL1      C20            22.9858949570      -10.8478234898        8.0121900000  MEMB      36              0.0000000000
      4461        36  CHL1      H20            24.0488061010      -10.5248123433        8.0265100000  MEMB      36              0.0000000000
      4462        36  CHL1      C21            22.1784402064       -9.5425423672        8.2922600000  MEMB      36              0.0000000000
      4463        36  CHL1      H21A           22.6589031047       -8.9506539558        9.1004300000  MEMB      36              0.0000000000
      4464        36  CHL1      H21B           21.1955711998       -9.8524488757        8.7072900000  MEMB      36              0.0000000000
      4465        36  CHL1      H21C           22.0184854056       -8.8491072076        7.4391000000  MEMB      36              0.0000000000
      4466        36  CHL1      C22            22.7188802078      -11.4185451872        6.6065700000  MEMB      36              0.0000000000
      4467        36  CHL1      H22A           22.8931645968      -10.6487960286        5.8246300000  MEMB      36              0.0000000000
      4468        36  CHL1      H22B           23.3930540134      -12.2346279047        6.2691900000  MEMB      36              0.0000000000
      4469        36  CHL1      C23            21.1436450371      -11.6916174538        6.3497200000  MEMB      36              0.0000000000
      4470        36  CHL1      H23A           20.8101473878      -12.5787056521        6.9295200000  MEMB      36              0.0000000000
      4471        36  CHL1      H23B           20.4218791365      -10.8819540660        6.5901900000  MEMB      36              0.0000000000
      4472        36  CHL1      C24            20.9734983782      -12.3140271255        4.9033300000  MEMB      36              0.0000000000
      4473        36  CHL1      H24A           21.3700167321      -11.6128313641        4.1382100000  MEMB      36              0.0000000000
      4474        36  CHL1      H24B           21.6724968178      -13.1773978388        4.8858100000  MEMB      36              0.0000000000
      4475        36  CHL1      C25            19.5834693150      -12.7920708463        4.4697600000  MEMB      36              0.0000000000
      4476        36  CHL1      H25            19.0465772633      -11.8600165782        4.1916400000  MEMB      36              0.0000000000
      4477        36  CHL1      C26            19.6690866303      -13.6702255426        3.2196700000  MEMB      36              0.0000000000
      4478        36  CHL1      H26A           20.5422065185      -14.3515998297        3.3074700000  MEMB      36              0.0000000000
      4479        36  CHL1      H26B           18.7335349802      -14.2505265292        3.0702600000  MEMB      36              0.0000000000
      4480        36  CHL1      H26C           19.9476337503      -12.9543534879        2.4170200000  MEMB      36              0.0000000000
      4481        36  CHL1      C27            18.5753478442      -13.3191522575        5.5738000000  MEMB      36              0.0000000000
      4482        36  CHL1      H27A           18.5584495085      -12.7540560221        6.5302000000  MEMB      36              0.0000000000
      4483        36  CHL1      H27B           17.5637599232      -13.2998294891        5.1148500000  MEMB      36              0.0000000000
      4484        36  CHL1      H27C           18.9294130035      -14.3398671470        5.8328500000  MEMB      36              0.0000000000
      4485        37  DOPC      N             -23.9604936125        0.3993652090       19.4431420995  MEMB      37              0.0000000000
      4486        37  DOPC      C12           -25.3141577466        0.9308688451       19.6279311335  MEMB      37              0.0000000000
      4487        37  DOPC      H12A          -25.6149991421        1.3403958650       18.6749452650  MEMB      37              0.0000000000
      4488        37  DOPC      H12B          -25.3034516504        1.9100692235       20.0834000893  MEMB      37              0.0000000000
      4489        37  DOPC      C13           -23.7474659466       -0.2207440330       18.0781553719  MEMB      37              0.0000000000
      4490        37  DOPC      H13A          -23.9428444299        0.5470363461       17.3441658462  MEMB      37              0.0000000000
      4491        37  DOPC      H13B          -22.7743228964       -0.6348602289       17.8592937181  MEMB      37              0.0000000000
      4492        37  DOPC      H13C          -24.4701638831       -0.9952208698       17.8676957284  MEMB      37              0.0000000000
      4493        37  DOPC      C14           -23.5742653301       -0.6477851922       20.4978990576  MEMB      37              0.0000000000
      4494        37  DOPC      H14A          -23.4099244512       -0.0679452390       21.3941009125  MEMB      37              0.0000000000
      4495        37  DOPC      H14B          -24.4503251457       -1.2771956115       20.5504508996  MEMB      37              0.0000000000
      4496        37  DOPC      H14C          -22.6662639990       -1.1655703202       20.2261778591  MEMB      37              0.0000000000
      4497        37  DOPC      C15           -22.9729451270        1.6092009413       19.4286767325  MEMB      37              0.0000000000
      4498        37  DOPC      H15A          -23.1327065082        2.1342084739       20.3588613976  MEMB      37              0.0000000000
      4499        37  DOPC      H15B          -23.2264194858        2.3638441084       18.6988379637  MEMB      37              0.0000000000
      4500        37  DOPC      H15C          -22.0137069001        1.1176270857       19.3607250141  MEMB      37              0.0000000000
      4501        37  DOPC      C11           -26.6318717668        0.2076182961       19.9986910910  MEMB      37              0.0000000000
      4502        37  DOPC      H11A          -26.6153939868       -0.1236216656       21.0590351261  MEMB      37              0.0000000000
      4503        37  DOPC      H11B          -27.4767636733        0.9184774730       19.8755731131  MEMB      37              0.0000000000
      4504        37  DOPC      P             -27.9917119976       -1.4266163039       18.3940575217  MEMB      37              0.0000000000
      4505        37  DOPC      O13           -28.7694504988       -0.2236751799       18.0011447214  MEMB      37              0.0000000000
      4506        37  DOPC      O14           -28.7794600367       -2.4531384203       19.0965032674  MEMB      37              0.0000000000
      4507        37  DOPC      O12           -26.7874396096       -0.9979319919       19.2844008200  MEMB      37              0.0000000000
      4508        37  DOPC      O11           -27.2881438076       -1.9285395239       17.1493981810  MEMB      37              0.0000000000
      4509        37  DOPC      C1            -26.1764618596       -2.8104106406       17.0175785423  MEMB      37              0.0000000000
      4510        37  DOPC      HA            -26.2631312535       -3.5291091575       17.8603608101  MEMB      37              0.0000000000
      4511        37  DOPC      HB            -25.2289571984       -2.2821801691       17.2574296685  MEMB      37              0.0000000000
      4512        37  DOPC      C2            -26.1956050587       -3.4681770911       15.6624469090  MEMB      37              0.0000000000
      4513        37  DOPC      HS            -25.2465824926       -4.0328244526       15.5405853720  MEMB      37              0.0000000000
      4514        37  DOPC      O21           -26.4596130988       -2.5262824386       14.5713788358  MEMB      37              0.0000000000
      4515        37  DOPC      C21           -25.3864358289       -1.7852134552       14.2145195519  MEMB      37              0.0000000000
      4516        37  DOPC      O22           -24.3370742950       -1.8333380514       14.8312907463  MEMB      37              0.0000000000
      4517        37  DOPC      C22           -25.6058692561       -0.8898210553       13.0283405168  MEMB      37              0.0000000000
      4518        37  DOPC      H2R           -26.6126740533       -0.4279219371       13.1138640047  MEMB      37              0.0000000000
      4519        37  DOPC      H2S           -25.7250693015       -1.5103851681       12.1145502797  MEMB      37              0.0000000000
      4520        37  DOPC      C3            -27.2672338764       -4.5871800305       15.6737067865  MEMB      37              0.0000000000
      4521        37  DOPC      HX            -28.2535138994       -4.1180859828       15.8774803537  MEMB      37              0.0000000000
      4522        37  DOPC      HY            -26.9544344946       -5.3740652999       16.3929349674  MEMB      37              0.0000000000
      4523        37  DOPC      O31           -27.4296365181       -5.1720848525       14.4366101424  MEMB      37              0.0000000000
      4524        37  DOPC      C31           -28.1377420854       -4.6770976405       13.5037538829  MEMB      37              0.0000000000
      4525        37  DOPC      O32           -28.8017741258       -3.6362578917       13.5649906784  MEMB      37              0.0000000000
      4526        37  DOPC      C32           -28.0181280191       -5.6837355920       12.3226618081  MEMB      37              0.0000000000
      4527        37  DOPC      H2X           -26.9523998682       -5.8060757685       12.0335644014  MEMB      37              0.0000000000
      4528        37  DOPC      H2Y           -28.5070705632       -6.6241194461       12.6557307609  MEMB      37              0.0000000000
      4529        37  DOPC      C23           -24.5988448997        0.2623335291       12.9359628232  MEMB      37              0.0000000000
      4530        37  DOPC      H3R           -23.6931915129       -0.0464043995       12.3713445401  MEMB      37              0.0000000000
      4531        37  DOPC      H3S           -24.3694599332        0.6501971371       13.9514751532  MEMB      37              0.0000000000
      4532        37  DOPC      C24           -25.0513678404        1.5530909582       12.1558437393  MEMB      37              0.0000000000
      4533        37  DOPC      H4R           -24.4838599609        2.4292749704       12.5360514191  MEMB      37              0.0000000000
      4534        37  DOPC      H4S           -26.1368024248        1.7775978726       12.2316688314  MEMB      37              0.0000000000
      4535        37  DOPC      C25           -24.6148389311        1.4201064664       10.6597805222  MEMB      37              0.0000000000
      4536        37  DOPC      H5R           -23.5584611948        1.7358313756       10.5230133534  MEMB      37              0.0000000000
      4537        37  DOPC      H5S           -25.2890035915        2.0661385564       10.0577299835  MEMB      37              0.0000000000
      4538        37  DOPC      C26           -24.6851793369        0.0637260525        9.8884741403  MEMB      37              0.0000000000
      4539        37  DOPC      H6R           -25.6214518120       -0.5235140046       10.0018935196  MEMB      37              0.0000000000
      4540        37  DOPC      H6S           -23.8779097234       -0.6517571210       10.1544069982  MEMB      37              0.0000000000
      4541        37  DOPC      C27           -24.4543191206        0.3968073686        8.4070017444  MEMB      37              0.0000000000
      4542        37  DOPC      H7R           -23.6597721691        1.1611870596        8.2701087450  MEMB      37              0.0000000000
      4543        37  DOPC      H7S           -25.4445985467        0.7195751871        8.0203630158  MEMB      37              0.0000000000
      4544        37  DOPC      C28           -23.9430681252       -0.8450786880        7.5977530572  MEMB      37              0.0000000000
      4545        37  DOPC      H8R           -23.0476884488       -1.2358761036        8.1268026280  MEMB      37              0.0000000000
      4546        37  DOPC      H8S           -23.7091805169       -0.4593566229        6.5824515822  MEMB      37              0.0000000000
      4547        37  DOPC      C29           -24.8984495521       -1.9516945681        7.3514088343  MEMB      37              0.0000000000
      4548        37  DOPC      H9R           -25.8746398610       -1.6884552875        7.7847189723  MEMB      37              0.0000000000
      4549        37  DOPC      C210          -24.7821345328       -3.1565958555        6.7965660081  MEMB      37              0.0000000000
      4550        37  DOPC      H10R          -25.5304056254       -3.9507045679        6.9361429834  MEMB      37              0.0000000000
      4551        37  DOPC      C211          -23.4718134213       -3.6313705278        6.1942751815  MEMB      37              0.0000000000
      4552        37  DOPC      H11R          -23.1027252297       -4.4077609637        6.8980592457  MEMB      37              0.0000000000
      4553        37  DOPC      H11S          -22.6504196821       -2.8847913679        6.2417370740  MEMB      37              0.0000000000
      4554        37  DOPC      C212          -23.6714133372       -4.1636049160        4.8266976152  MEMB      37              0.0000000000
      4555        37  DOPC      H12R          -24.6012172557       -4.7617732561        4.7172444963  MEMB      37              0.0000000000
      4556        37  DOPC      H12S          -22.8188875352       -4.8541264437        4.6514802881  MEMB      37              0.0000000000
      4557        37  DOPC      C213          -23.7052661286       -3.2995746513        3.5178708105  MEMB      37              0.0000000000
      4558        37  DOPC      H13R          -24.1555726290       -3.8940202269        2.6943548637  MEMB      37              0.0000000000
      4559        37  DOPC      H13S          -22.6835822951       -3.1017300401        3.1288457219  MEMB      37              0.0000000000
      4560        37  DOPC      C214          -24.3796159792       -1.9634218357        3.5954645307  MEMB      37              0.0000000000
      4561        37  DOPC      H14R          -23.7939132523       -1.4068049854        4.3579936501  MEMB      37              0.0000000000
      4562        37  DOPC      H14S          -25.3798350060       -2.1221555167        4.0522874467  MEMB      37              0.0000000000
      4563        37  DOPC      C215          -24.5177878866       -1.2096020117        2.3109020139  MEMB      37              0.0000000000
      4564        37  DOPC      H15R          -25.2151589527       -1.6751812512        1.5820481353  MEMB      37              0.0000000000
      4565        37  DOPC      H15S          -23.4854558490       -1.2157395597        1.9003251976  MEMB      37              0.0000000000
      4566        37  DOPC      C216          -25.1248841481        0.1613050002        2.4748933863  MEMB      37              0.0000000000
      4567        37  DOPC      H16R          -24.4184383494        0.9323655251        2.8500203694  MEMB      37              0.0000000000
      4568        37  DOPC      H16S          -25.8603365775        0.0804452489        3.3036818397  MEMB      37              0.0000000000
      4569        37  DOPC      C217          -25.6944508084        0.7941526439        1.2027986508  MEMB      37              0.0000000000
      4570        37  DOPC      H17R          -24.8747326643        0.8663099880        0.4563565588  MEMB      37              0.0000000000
      4571        37  DOPC      H17S          -26.0303423533        1.8196248178        1.4671923771  MEMB      37              0.0000000000
      4572        37  DOPC      C218          -26.8493746688        0.0839622952        0.4779895948  MEMB      37              0.0000000000
      4573        37  DOPC      H18R          -27.1707223118        0.6434889788       -0.4264371338  MEMB      37              0.0000000000
      4574        37  DOPC      H18S          -27.7993155912        0.0376157712        1.0522583686  MEMB      37              0.0000000000
      4575        37  DOPC      H18T          -26.5117688613       -0.9556639224        0.2791920643  MEMB      37              0.0000000000
      4576        37  DOPC      C33           -28.8874230781       -5.1358912835       11.1686121606  MEMB      37              0.0000000000
      4577        37  DOPC      H3X           -29.6867196515       -4.4381092782       11.4980751126  MEMB      37              0.0000000000
      4578        37  DOPC      H3Y           -29.4302885199       -5.9952939771       10.7202305311  MEMB      37              0.0000000000
      4579        37  DOPC      C34           -28.1139679483       -4.5132795964       10.0739898894  MEMB      37              0.0000000000
      4580        37  DOPC      H4X           -28.7259731382       -4.6027700346        9.1510809020  MEMB      37              0.0000000000
      4581        37  DOPC      H4Y           -27.1247291297       -4.9545210286        9.8269403314  MEMB      37              0.0000000000
      4582        37  DOPC      C35           -27.5449545134       -3.0296447933       10.3348405003  MEMB      37              0.0000000000
      4583        37  DOPC      H5X           -26.7174625523       -2.7892698545        9.6335572879  MEMB      37              0.0000000000
      4584        37  DOPC      H5Y           -27.0145558643       -3.0843410550       11.3095230395  MEMB      37              0.0000000000
      4585        37  DOPC      C36           -28.6016942074       -1.8106736724       10.2188568700  MEMB      37              0.0000000000
      4586        37  DOPC      H6X           -28.9755924205       -1.7764329359       11.2644903182  MEMB      37              0.0000000000
      4587        37  DOPC      H6Y           -28.0024907260       -0.8771538734       10.1570750020  MEMB      37              0.0000000000
      4588        37  DOPC      C37           -29.6402647408       -1.8903881099        9.1431738512  MEMB      37              0.0000000000
      4589        37  DOPC      H7X           -30.1801890849       -2.8602595333        9.1895649528  MEMB      37              0.0000000000
      4590        37  DOPC      H7Y           -30.4039810003       -1.0917711135        9.2583663845  MEMB      37              0.0000000000
      4591        37  DOPC      C38           -29.0798375040       -1.8406086070        7.7161317824  MEMB      37              0.0000000000
      4592        37  DOPC      H8X           -28.0799731767       -2.3249452797        7.7129300438  MEMB      37              0.0000000000
      4593        37  DOPC      H8Y           -28.7644023037       -0.8157973753        7.4252990540  MEMB      37              0.0000000000
      4594        37  DOPC      C39           -29.9517839556       -2.5441820204        6.6182617719  MEMB      37              0.0000000000
      4595        37  DOPC      H9X           -30.9334267327       -2.0707235984        6.4692151261  MEMB      37              0.0000000000
      4596        37  DOPC      C310          -29.7238551202       -3.7244100204        5.9496782641  MEMB      37              0.0000000000
      4597        37  DOPC      H10X          -30.4370592486       -3.9463849285        5.1421722960  MEMB      37              0.0000000000
      4598        37  DOPC      C311          -28.5963755966       -4.5824004887        6.1290726964  MEMB      37              0.0000000000
      4599        37  DOPC      H11X          -28.8954797391       -5.5773793668        6.5226139361  MEMB      37              0.0000000000
      4600        37  DOPC      H11Y          -27.9256580379       -4.2902900826        6.9652129148  MEMB      37              0.0000000000
      4601        37  DOPC      C312          -27.6786110808       -4.5711175051        4.9643283987  MEMB      37              0.0000000000
      4602        37  DOPC      H12X          -26.8113606124       -5.2075858256        5.2420074034  MEMB      37              0.0000000000
      4603        37  DOPC      H12Y          -27.3344158077       -3.5245086797        4.8212887712  MEMB      37              0.0000000000
      4604        37  DOPC      C313          -28.2688839952       -5.1267559642        3.6944527415  MEMB      37              0.0000000000
      4605        37  DOPC      H13X          -27.5094780067       -5.7079269884        3.1288878346  MEMB      37              0.0000000000
      4606        37  DOPC      H13Y          -29.1308629323       -5.8027260151        3.8798654319  MEMB      37              0.0000000000
      4607        37  DOPC      C314          -28.5999086177       -3.9232863354        2.7247341143  MEMB      37              0.0000000000
      4608        37  DOPC      H14X          -29.3860934033       -3.3052641634        3.2087622009  MEMB      37              0.0000000000
      4609        37  DOPC      H14Y          -27.6334894880       -3.3917065515        2.5913991820  MEMB      37              0.0000000000
      4610        37  DOPC      C315          -29.2829808706       -4.2321665073        1.4077699170  MEMB      37              0.0000000000
      4611        37  DOPC      H15X          -28.5423382085       -4.8472406843        0.8532854231  MEMB      37              0.0000000000
      4612        37  DOPC      H15Y          -29.3007143334       -3.3073643946        0.7923454764  MEMB      37              0.0000000000
      4613        37  DOPC      C316          -30.5968191050       -4.9229057164        1.3851809357  MEMB      37              0.0000000000
      4614        37  DOPC      H16X          -30.7191462275       -5.6590607714        2.2082446878  MEMB      37              0.0000000000
      4615        37  DOPC      H16Y          -31.3775276008       -4.1569855241        1.5805819706  MEMB      37              0.0000000000
      4616        37  DOPC      C317          -30.9299959896       -5.7872496543        0.1275603030  MEMB      37              0.0000000000
      4617        37  DOPC      H17X          -30.0115621506       -6.3698620526       -0.0990747148  MEMB      37              0.0000000000
      4618        37  DOPC      H17Y          -31.7335098620       -6.4521088479        0.5105070224  MEMB      37              0.0000000000
      4619        37  DOPC      C318          -31.3829020737       -5.0504643875       -1.1539470158  MEMB      37              0.0000000000
      4620        37  DOPC      H18X          -31.8925258573       -5.6299549142       -1.9531937657  MEMB      37              0.0000000000
      4621        37  DOPC      H18Y          -32.1126084256       -4.3013683630       -0.7788412386  MEMB      37              0.0000000000
      4622        37  DOPC      H18Z          -30.6080938593       -4.4280086688       -1.6504770430  MEMB      37              0.0000000000
      4623        38  DOPC      N               0.8076081339      -24.3187226509       18.6980370694  MEMB      38              0.0000000000
      4624        38  DOPC      C12             1.3861362633      -25.3415901635       17.6787529791  MEMB      38              0.0000000000
      4625        38  DOPC      H12A            1.9898124268      -24.8140489965       16.9550988232  MEMB      38              0.0000000000
      4626        38  DOPC      H12B            0.4570557887      -25.7436633050       17.3025260656  MEMB      38              0.0000000000
      4627        38  DOPC      C13             1.9349909806      -23.6239340226       19.4459779648  MEMB      38              0.0000000000
      4628        38  DOPC      H13A            2.5826540463      -23.1736602900       18.7082882712  MEMB      38              0.0000000000
      4629        38  DOPC      H13B            1.5436408452      -22.9075053606       20.1530668811  MEMB      38              0.0000000000
      4630        38  DOPC      H13C            2.5798303331      -24.3691630433       19.8878105240  MEMB      38              0.0000000000
      4631        38  DOPC      C14            -0.0427186874      -24.9517777219       19.6578077103  MEMB      38              0.0000000000
      4632        38  DOPC      H14A           -0.6214280032      -24.1599037091       20.1099480575  MEMB      38              0.0000000000
      4633        38  DOPC      H14B           -0.7490300389      -25.6653430787       19.2598772214  MEMB      38              0.0000000000
      4634        38  DOPC      H14C            0.6675544537      -25.3518669351       20.3662147332  MEMB      38              0.0000000000
      4635        38  DOPC      C15             0.0040096492      -23.2746820648       17.9586275026  MEMB      38              0.0000000000
      4636        38  DOPC      H15A           -0.5321192205      -22.6284646886       18.6378691269  MEMB      38              0.0000000000
      4637        38  DOPC      H15B           -0.6253915297      -23.8476299948       17.2938081341  MEMB      38              0.0000000000
      4638        38  DOPC      H15C            0.5852045005      -22.6560182826       17.2908941481  MEMB      38              0.0000000000
      4639        38  DOPC      C11             2.0884235286      -26.5556633677       18.2195665065  MEMB      38              0.0000000000
      4640        38  DOPC      H11A            2.5542725469      -27.1697775887       17.4194606262  MEMB      38              0.0000000000
      4641        38  DOPC      H11B            3.0153146372      -26.0903761501       18.6179404094  MEMB      38              0.0000000000
      4642        38  DOPC      P               1.9087729065      -28.7562018740       19.5405137791  MEMB      38              0.0000000000
      4643        38  DOPC      O13             1.2183752014      -29.2774873190       20.6994799335  MEMB      38              0.0000000000
      4644        38  DOPC      O14             3.4084050395      -28.5840356231       19.6778976851  MEMB      38              0.0000000000
      4645        38  DOPC      O12             1.3078950802      -27.3651608834       19.1463502519  MEMB      38              0.0000000000
      4646        38  DOPC      O11             1.6466721809      -29.7832655041       18.2769886177  MEMB      38              0.0000000000
      4647        38  DOPC      C1              0.5426734136      -29.5184043777       17.4636503641  MEMB      38              0.0000000000
      4648        38  DOPC      HA              0.6181176076      -28.5653253096       16.8977269064  MEMB      38              0.0000000000
      4649        38  DOPC      HB             -0.3332965367      -29.5822115948       18.1440371917  MEMB      38              0.0000000000
      4650        38  DOPC      C2              0.3770035707      -30.5601566095       16.2698067618  MEMB      38              0.0000000000
      4651        38  DOPC      HS              0.1779824827      -31.5523704386       16.7283082872  MEMB      38              0.0000000000
      4652        38  DOPC      O21             1.4835710842      -30.5394107647       15.3670044774  MEMB      38              0.0000000000
      4653        38  DOPC      C21             1.6335084711      -31.4785864788       14.4379213815  MEMB      38              0.0000000000
      4654        38  DOPC      O22             1.2065647555      -32.6192904581       14.4931582334  MEMB      38              0.0000000000
      4655        38  DOPC      C22             2.5096186195      -30.8187852938       13.3771661166  MEMB      38              0.0000000000
      4656        38  DOPC      H2R             3.5648998135      -31.0822117752       13.6036820875  MEMB      38              0.0000000000
      4657        38  DOPC      H2S             2.6100679294      -29.7207020390       13.5129745035  MEMB      38              0.0000000000
      4658        38  DOPC      C3             -0.8328557298      -30.2817405954       15.4334238736  MEMB      38              0.0000000000
      4659        38  DOPC      HX             -1.7924156228      -30.3587636734       15.9880705933  MEMB      38              0.0000000000
      4660        38  DOPC      HY             -1.0140848232      -31.1399450568       14.7515428456  MEMB      38              0.0000000000
      4661        38  DOPC      O31            -0.7032436067      -29.0573865636       14.6807135554  MEMB      38              0.0000000000
      4662        38  DOPC      C31            -1.7863972243      -28.1645442304       14.6621657647  MEMB      38              0.0000000000
      4663        38  DOPC      O32            -2.8282367868      -28.3866171642       15.2794259982  MEMB      38              0.0000000000
      4664        38  DOPC      C32            -1.5203891483      -27.0628268157       13.7194244349  MEMB      38              0.0000000000
      4665        38  DOPC      H2X            -1.2219229422      -27.4298446744       12.7141695280  MEMB      38              0.0000000000
      4666        38  DOPC      H2Y            -2.4621907558      -26.5043065621       13.5313125391  MEMB      38              0.0000000000
      4667        38  DOPC      C23             2.0306223938      -31.2173024493       11.9747355996  MEMB      38              0.0000000000
      4668        38  DOPC      H3R             1.7882328448      -32.2958096007       11.8634254356  MEMB      38              0.0000000000
      4669        38  DOPC      H3S             2.9087252473      -31.1099794249       11.3026210253  MEMB      38              0.0000000000
      4670        38  DOPC      C24             0.8438660169      -30.2987028126       11.5502664828  MEMB      38              0.0000000000
      4671        38  DOPC      H4R             1.3412560535      -29.3629577206       11.2166421067  MEMB      38              0.0000000000
      4672        38  DOPC      H4S             0.0905912811      -30.2409774172       12.3648618549  MEMB      38              0.0000000000
      4673        38  DOPC      C25             0.0821080729      -30.7677739270       10.2683475896  MEMB      38              0.0000000000
      4674        38  DOPC      H5R            -0.1164951272      -31.8430075722       10.4651984024  MEMB      38              0.0000000000
      4675        38  DOPC      H5S             0.7311279880      -30.6454606824        9.3749639104  MEMB      38              0.0000000000
      4676        38  DOPC      C26            -1.1425288150      -29.9438029146       10.0295708422  MEMB      38              0.0000000000
      4677        38  DOPC      H6R            -1.7090640487      -29.8172723849       10.9768552979  MEMB      38              0.0000000000
      4678        38  DOPC      H6S            -1.7386559798      -30.4149680702        9.2190421267  MEMB      38              0.0000000000
      4679        38  DOPC      C27            -0.8087306770      -28.5436497465        9.4315307555  MEMB      38              0.0000000000
      4680        38  DOPC      H7R            -0.5733345904      -28.7055153620        8.3578882467  MEMB      38              0.0000000000
      4681        38  DOPC      H7S             0.0587151196      -28.0609532182        9.9303923812  MEMB      38              0.0000000000
      4682        38  DOPC      C28            -1.9171666867      -27.4181540915        9.4471480218  MEMB      38              0.0000000000
      4683        38  DOPC      H8R            -2.4525798698      -27.4265006824       10.4205876769  MEMB      38              0.0000000000
      4684        38  DOPC      H8S            -2.5759768562      -27.7018787722        8.5987440212  MEMB      38              0.0000000000
      4685        38  DOPC      C29            -1.3614255822      -25.9978881870        9.3757231497  MEMB      38              0.0000000000
      4686        38  DOPC      H9R            -0.8660385229      -25.8223598670       10.3420470090  MEMB      38              0.0000000000
      4687        38  DOPC      C210           -1.6026231457      -25.0304984769        8.4500574307  MEMB      38              0.0000000000
      4688        38  DOPC      H10R           -1.2922980171      -24.0043668373        8.6965367361  MEMB      38              0.0000000000
      4689        38  DOPC      C211           -2.4467165475      -25.1386945330        7.1702074084  MEMB      38              0.0000000000
      4690        38  DOPC      H11R           -2.6694020795      -24.1314273827        6.7577215608  MEMB      38              0.0000000000
      4691        38  DOPC      H11S           -3.3910575519      -25.6440735107        7.4653907907  MEMB      38              0.0000000000
      4692        38  DOPC      C212           -1.7801136649      -25.9645718912        6.0146166861  MEMB      38              0.0000000000
      4693        38  DOPC      H12R           -2.5561661266      -26.2490521839        5.2722323279  MEMB      38              0.0000000000
      4694        38  DOPC      H12S           -1.2819809528      -26.9235893218        6.2724348460  MEMB      38              0.0000000000
      4695        38  DOPC      C213           -0.6332662164      -25.1753269637        5.3334699715  MEMB      38              0.0000000000
      4696        38  DOPC      H13R            0.0661800093      -24.9017961765        6.1521740866  MEMB      38              0.0000000000
      4697        38  DOPC      H13S           -1.1129073094      -24.2469899430        4.9560359221  MEMB      38              0.0000000000
      4698        38  DOPC      C214            0.1210066958      -25.9824526671        4.2729625363  MEMB      38              0.0000000000
      4699        38  DOPC      H14R           -0.5615423572      -26.5633357020        3.6164390825  MEMB      38              0.0000000000
      4700        38  DOPC      H14S            0.8126275469      -26.6866813238        4.7829070614  MEMB      38              0.0000000000
      4701        38  DOPC      C215            1.0281076624      -24.9708504169        3.4110184885  MEMB      38              0.0000000000
      4702        38  DOPC      H15R            1.9090209541      -25.6166299717        3.2078402030  MEMB      38              0.0000000000
      4703        38  DOPC      H15S            1.3211889968      -24.1525861703        4.1030218572  MEMB      38              0.0000000000
      4704        38  DOPC      C216            0.2303587822      -24.3813555710        2.2103705242  MEMB      38              0.0000000000
      4705        38  DOPC      H16R           -0.7835047060      -24.1117490616        2.5760390570  MEMB      38              0.0000000000
      4706        38  DOPC      H16S            0.0596598953      -25.2008741269        1.4799109312  MEMB      38              0.0000000000
      4707        38  DOPC      C217            0.9036109454      -23.0953980914        1.6885650375  MEMB      38              0.0000000000
      4708        38  DOPC      H17R            1.8000791008      -23.3845984446        1.0994737000  MEMB      38              0.0000000000
      4709        38  DOPC      H17S            1.1032528084      -22.4781039202        2.5904582707  MEMB      38              0.0000000000
      4710        38  DOPC      C218            0.0746366537      -22.1251268203        0.8469944448  MEMB      38              0.0000000000
      4711        38  DOPC      H18R           -0.4549010606      -22.8297476322        0.1706658498  MEMB      38              0.0000000000
      4712        38  DOPC      H18S            0.6683690076      -21.3726365122        0.2852466662  MEMB      38              0.0000000000
      4713        38  DOPC      H18T           -0.6313969033      -21.6024299406        1.5271615854  MEMB      38              0.0000000000
      4714        38  DOPC      C33            -0.5614158352      -26.0609578271       14.3916488047  MEMB      38              0.0000000000
      4715        38  DOPC      H3X             0.1772871582      -26.6776699575       14.9469007249  MEMB      38              0.0000000000
      4716        38  DOPC      H3Y            -1.0645355058      -25.4845720416       15.1972359563  MEMB      38              0.0000000000
      4717        38  DOPC      C34             0.1250113473      -25.1260168122       13.4160331767  MEMB      38              0.0000000000
      4718        38  DOPC      H4X             0.6565930515      -24.3808583601       14.0457004502  MEMB      38              0.0000000000
      4719        38  DOPC      H4Y            -0.5104630677      -24.6384528437       12.6461150956  MEMB      38              0.0000000000
      4720        38  DOPC      C35             1.2317369237      -25.8380884229       12.6047303477  MEMB      38              0.0000000000
      4721        38  DOPC      H5X             0.7462986856      -26.5998844617       11.9579402152  MEMB      38              0.0000000000
      4722        38  DOPC      H5Y             2.0071983008      -26.3861554001       13.1814477150  MEMB      38              0.0000000000
      4723        38  DOPC      C36             1.9553728378      -24.7875226417       11.7024886533  MEMB      38              0.0000000000
      4724        38  DOPC      H6X             1.2908727323      -24.1387101111       11.0927319299  MEMB      38              0.0000000000
      4725        38  DOPC      H6Y             2.4273811005      -24.2011199066       12.5195939465  MEMB      38              0.0000000000
      4726        38  DOPC      C37             3.1151864939      -25.3347811206       10.9191816659  MEMB      38              0.0000000000
      4727        38  DOPC      H7X             3.6636431876      -24.4688380423       10.4906274016  MEMB      38              0.0000000000
      4728        38  DOPC      H7Y             3.7014619980      -26.0619645656       11.5206847191  MEMB      38              0.0000000000
      4729        38  DOPC      C38             2.8569944379      -26.2347628716        9.6814371532  MEMB      38              0.0000000000
      4730        38  DOPC      H8X             2.3789699227      -25.5247918901        8.9730909127  MEMB      38              0.0000000000
      4731        38  DOPC      H8Y             2.0951005970      -26.9942532332        9.9589499946  MEMB      38              0.0000000000
      4732        38  DOPC      C39             4.0766021765      -26.9639378983        9.2113630601  MEMB      38              0.0000000000
      4733        38  DOPC      H9X             4.7811662063      -27.1501904318       10.0353165567  MEMB      38              0.0000000000
      4734        38  DOPC      C310            4.2582553409      -27.3217343047        7.9438991241  MEMB      38              0.0000000000
      4735        38  DOPC      H10X            5.2542608491      -27.7431848760        7.7430192045  MEMB      38              0.0000000000
      4736        38  DOPC      C311            3.3235770907      -27.0789067032        6.7955302110  MEMB      38              0.0000000000
      4737        38  DOPC      H11X            3.8235212178      -27.3145511273        5.8317623085  MEMB      38              0.0000000000
      4738        38  DOPC      H11Y            2.7761947007      -26.1187993695        6.9090525959  MEMB      38              0.0000000000
      4739        38  DOPC      C312            2.2038637272      -28.1456003494        7.0027915528  MEMB      38              0.0000000000
      4740        38  DOPC      H12X            1.3077250005      -27.9758472497        6.3684100525  MEMB      38              0.0000000000
      4741        38  DOPC      H12Y            1.7422405268      -28.1212909860        8.0130556262  MEMB      38              0.0000000000
      4742        38  DOPC      C313            2.7359054488      -29.6117055212        6.9241698585  MEMB      38              0.0000000000
      4743        38  DOPC      H13X            3.6148931981      -29.8041643783        7.5758300753  MEMB      38              0.0000000000
      4744        38  DOPC      H13Y            1.9058158685      -30.2671879778        7.2641924004  MEMB      38              0.0000000000
      4745        38  DOPC      C314            3.2201296565      -29.9324831410        5.4625827066  MEMB      38              0.0000000000
      4746        38  DOPC      H14X            4.1183846895      -29.3152295709        5.2470445585  MEMB      38              0.0000000000
      4747        38  DOPC      H14Y            3.5834508209      -30.9818017512        5.4979255271  MEMB      38              0.0000000000
      4748        38  DOPC      C315            2.2979611728      -29.4870732255        4.2568347832  MEMB      38              0.0000000000
      4749        38  DOPC      H15X            2.8213628835      -28.5504929182        3.9684099291  MEMB      38              0.0000000000
      4750        38  DOPC      H15Y            1.2949939058      -29.3735985937        4.7210553919  MEMB      38              0.0000000000
      4751        38  DOPC      C316            2.2252532223      -30.4183198217        2.9899660847  MEMB      38              0.0000000000
      4752        38  DOPC      H16X            3.2590798013      -30.5163611967        2.5951095901  MEMB      38              0.0000000000
      4753        38  DOPC      H16Y            1.8913792760      -31.4041654305        3.3784977167  MEMB      38              0.0000000000
      4754        38  DOPC      C317            1.2187055982      -29.9750224575        1.9372538322  MEMB      38              0.0000000000
      4755        38  DOPC      H17X            1.0277153035      -30.7422525413        1.1567406596  MEMB      38              0.0000000000
      4756        38  DOPC      H17Y            0.2628352054      -29.7569030971        2.4598030320  MEMB      38              0.0000000000
      4757        38  DOPC      C318            1.7137867103      -28.6763082907        1.2248038694  MEMB      38              0.0000000000
      4758        38  DOPC      H18X            1.5920109904      -27.7568278496        1.8363987601  MEMB      38              0.0000000000
      4759        38  DOPC      H18Y            2.7407909290      -28.8003829430        0.8196024132  MEMB      38              0.0000000000
      4760        38  DOPC      H18Z            1.1915148216      -28.4815602355        0.2637486389  MEMB      38              0.0000000000
      4761        39  DOPE      N             -23.9827893163        8.4649832569       16.4418188062  MEMB      39              0.0000000000
      4762        39  DOPE      HN1           -23.0991248951        7.9171379435       16.4172706940  MEMB      39              0.0000000000
      4763        39  DOPE      HN2           -24.4252969291        8.7148289105       15.5344246573  MEMB      39              0.0000000000
      4764        39  DOPE      HN3           -23.8808119020        9.3515627841       16.9758386782  MEMB      39              0.0000000000
      4765        39  DOPE      C12           -24.9526352666        7.5873548605       17.1628332390  MEMB      39              0.0000000000
      4766        39  DOPE      H12A          -24.8151236658        6.5773688759       16.7208604490  MEMB      39              0.0000000000
      4767        39  DOPE      H12B          -26.0045363452        7.8922960239       16.9761894417  MEMB      39              0.0000000000
      4768        39  DOPE      C11           -24.6755370828        7.6527275606       18.6307362935  MEMB      39              0.0000000000
      4769        39  DOPE      H11A          -23.6065610282        7.5410582759       18.9120564235  MEMB      39              0.0000000000
      4770        39  DOPE      H11B          -25.3081727899        6.8106391397       18.9842615619  MEMB      39              0.0000000000
      4771        39  DOPE      P             -26.3536789189        9.0181210474       20.0431261501  MEMB      39              0.0000000000
      4772        39  DOPE      O13           -26.2513375451       10.2483080232       20.8236476308  MEMB      39              0.0000000000
      4773        39  DOPE      O14           -26.6460095395        7.7528422118       20.7140419328  MEMB      39              0.0000000000
      4774        39  DOPE      O11           -27.4331357237        9.2993828637       18.9411897711  MEMB      39              0.0000000000
      4775        39  DOPE      O12           -25.0224062072        8.8767083340       19.2426061764  MEMB      39              0.0000000000
      4776        39  DOPE      C1            -28.8279154893        9.4997592463       19.3250253374  MEMB      39              0.0000000000
      4777        39  DOPE      HA            -29.1335326204       10.5251348070       19.6242308601  MEMB      39              0.0000000000
      4778        39  DOPE      HB            -29.1499060690        8.7452135229       20.0742274301  MEMB      39              0.0000000000
      4779        39  DOPE      C2            -29.8102742432        9.2468544433       18.1145039242  MEMB      39              0.0000000000
      4780        39  DOPE      HS            -30.8022657503        8.8798535168       18.4544811860  MEMB      39              0.0000000000
      4781        39  DOPE      O21           -29.3014250318        8.3956487565       17.1087148731  MEMB      39              0.0000000000
      4782        39  DOPE      C21           -29.3384565839        7.1233235493       17.5441697817  MEMB      39              0.0000000000
      4783        39  DOPE      O22           -29.8344205484        6.7441243241       18.6070563766  MEMB      39              0.0000000000
      4784        39  DOPE      C22           -28.5999409227        6.3171897024       16.5535292252  MEMB      39              0.0000000000
      4785        39  DOPE      H2R           -29.0880205981        5.3192361976       16.5398169293  MEMB      39              0.0000000000
      4786        39  DOPE      H2S           -27.5329502009        6.1721454743       16.8270505453  MEMB      39              0.0000000000
      4787        39  DOPE      C3            -30.0624285576       10.5893204127       17.3793026530  MEMB      39              0.0000000000
      4788        39  DOPE      HX            -30.7767444112       11.1936642413       17.9783373708  MEMB      39              0.0000000000
      4789        39  DOPE      HY            -30.5459302539       10.3920604241       16.3986724058  MEMB      39              0.0000000000
      4790        39  DOPE      O31           -28.9282834291       11.4957804252       17.1586356949  MEMB      39              0.0000000000
      4791        39  DOPE      C31           -28.2689034471       11.3319614835       16.0566372213  MEMB      39              0.0000000000
      4792        39  DOPE      O32           -28.4078418621       10.5203922545       15.1552043274  MEMB      39              0.0000000000
      4793        39  DOPE      C32           -27.1130824502       12.3364410070       16.0596641112  MEMB      39              0.0000000000
      4794        39  DOPE      H2X           -27.6260461025       13.2969810214       15.8393196574  MEMB      39              0.0000000000
      4795        39  DOPE      H2Y           -26.5281405296       12.3901127920       17.0026823839  MEMB      39              0.0000000000
      4796        39  DOPE      C23           -28.7121465720        6.9906907799       15.1304861380  MEMB      39              0.0000000000
      4797        39  DOPE      H3R           -28.0529656361        7.8847453800       15.1088492742  MEMB      39              0.0000000000
      4798        39  DOPE      H3S           -29.7750006435        7.2919524107       15.0125741997  MEMB      39              0.0000000000
      4799        39  DOPE      C24           -28.2000658162        6.0658589510       13.9648912932  MEMB      39              0.0000000000
      4800        39  DOPE      H4R           -28.2807580568        6.5515163993       12.9689263640  MEMB      39              0.0000000000
      4801        39  DOPE      H4S           -28.8683782918        5.1873683430       13.8386633998  MEMB      39              0.0000000000
      4802        39  DOPE      C25           -26.7602115851        5.5731421980       14.1220020965  MEMB      39              0.0000000000
      4803        39  DOPE      H5R           -26.7386942118        5.0333604677       15.0928228817  MEMB      39              0.0000000000
      4804        39  DOPE      H5S           -26.1300109012        6.4736964799       14.2837738191  MEMB      39              0.0000000000
      4805        39  DOPE      C26           -26.2734111854        4.5594017550       13.1324954492  MEMB      39              0.0000000000
      4806        39  DOPE      H6R           -27.1206751084        3.8904892943       12.8697772936  MEMB      39              0.0000000000
      4807        39  DOPE      H6S           -25.4400852188        3.9498509121       13.5427840445  MEMB      39              0.0000000000
      4808        39  DOPE      C27           -25.5558628063        5.1705823139       11.9394740302  MEMB      39              0.0000000000
      4809        39  DOPE      H7R           -24.7765637103        4.5077590638       11.5062539945  MEMB      39              0.0000000000
      4810        39  DOPE      H7S           -25.1355373927        6.1126546963       12.3519628578  MEMB      39              0.0000000000
      4811        39  DOPE      C28           -26.4199253812        5.5593984198       10.6933811196  MEMB      39              0.0000000000
      4812        39  DOPE      H8R           -25.6854354952        5.9784642350        9.9728056417  MEMB      39              0.0000000000
      4813        39  DOPE      H8S           -27.1404161980        6.3667057171       10.9453116331  MEMB      39              0.0000000000
      4814        39  DOPE      C29           -27.1885929433        4.4478005201       10.0401200337  MEMB      39              0.0000000000
      4815        39  DOPE      H9R           -28.2288513734        4.4075503842       10.3954261531  MEMB      39              0.0000000000
      4816        39  DOPE      C210          -26.7839958033        3.7022229637        8.9711242854  MEMB      39              0.0000000000
      4817        39  DOPE      H10R          -27.4166252677        2.8356196812        8.7286810228  MEMB      39              0.0000000000
      4818        39  DOPE      C211          -25.5379537810        3.7958538950        8.1854928031  MEMB      39              0.0000000000
      4819        39  DOPE      H11R          -24.7728983029        3.0059518254        8.3438154296  MEMB      39              0.0000000000
      4820        39  DOPE      H11S          -25.0180532344        4.7231651147        8.5081667772  MEMB      39              0.0000000000
      4821        39  DOPE      C212          -25.8052576427        3.9377413653        6.7386535857  MEMB      39              0.0000000000
      4822        39  DOPE      H12R          -26.5513972906        4.7398953008        6.5538681455  MEMB      39              0.0000000000
      4823        39  DOPE      H12S          -26.2999097131        3.0468078484        6.2960724186  MEMB      39              0.0000000000
      4824        39  DOPE      C213          -24.5382221039        4.0878268220        5.7769541530  MEMB      39              0.0000000000
      4825        39  DOPE      H13R          -23.9639014980        3.1373340611        5.7447079424  MEMB      39              0.0000000000
      4826        39  DOPE      H13S          -23.8360166161        4.8868012273        6.0976858298  MEMB      39              0.0000000000
      4827        39  DOPE      C214          -24.9539837520        4.5872346756        4.3900699047  MEMB      39              0.0000000000
      4828        39  DOPE      H14R          -25.7811641031        5.3129710784        4.5430418369  MEMB      39              0.0000000000
      4829        39  DOPE      H14S          -25.3832249987        3.6729088220        3.9273810770  MEMB      39              0.0000000000
      4830        39  DOPE      C215          -23.8509376170        5.1310200270        3.4960498375  MEMB      39              0.0000000000
      4831        39  DOPE      H15R          -23.2869969229        4.2339960399        3.1619230231  MEMB      39              0.0000000000
      4832        39  DOPE      H15S          -23.1028076196        5.7648362242        4.0184473910  MEMB      39              0.0000000000
      4833        39  DOPE      C216          -24.2728697735        5.9416366575        2.2494580743  MEMB      39              0.0000000000
      4834        39  DOPE      H16R          -24.6385403037        6.8993043481        2.6778021247  MEMB      39              0.0000000000
      4835        39  DOPE      H16S          -25.1860549932        5.5861254527        1.7259824327  MEMB      39              0.0000000000
      4836        39  DOPE      C217          -23.3591305124        6.3089678688        1.0171476692  MEMB      39              0.0000000000
      4837        39  DOPE      H17R          -22.3917373303        6.7707671922        1.3090598601  MEMB      39              0.0000000000
      4838        39  DOPE      H17S          -23.8515621855        7.0169773320        0.3167510544  MEMB      39              0.0000000000
      4839        39  DOPE      C218          -23.1222351650        5.1261539973        0.1413406997  MEMB      39              0.0000000000
      4840        39  DOPE      H18R          -22.7211369183        4.3352977871        0.8106592652  MEMB      39              0.0000000000
      4841        39  DOPE      H18S          -22.2834778026        5.3445997975       -0.5537048262  MEMB      39              0.0000000000
      4842        39  DOPE      H18T          -24.0772946781        4.8907342093       -0.3751475015  MEMB      39              0.0000000000
      4843        39  DOPE      C33           -26.1080224165       12.0031021017       14.9525658803  MEMB      39              0.0000000000
      4844        39  DOPE      H3X           -25.7018941304       10.9809213998       15.1091783099  MEMB      39              0.0000000000
      4845        39  DOPE      H3Y           -25.3601001547       12.7823681630       15.2127150697  MEMB      39              0.0000000000
      4846        39  DOPE      C34           -26.5003386142       12.3054590192       13.5431981627  MEMB      39              0.0000000000
      4847        39  DOPE      H4X           -27.3951294650       11.7597143048       13.1746424376  MEMB      39              0.0000000000
      4848        39  DOPE      H4Y           -26.6440133278       13.3996513471       13.4150482383  MEMB      39              0.0000000000
      4849        39  DOPE      C35           -25.3424269179       11.9180257990       12.5133600949  MEMB      39              0.0000000000
      4850        39  DOPE      H5X           -24.4945977949       12.5845920441       12.7801863437  MEMB      39              0.0000000000
      4851        39  DOPE      H5Y           -25.7894376175       12.2206998721       11.5423342296  MEMB      39              0.0000000000
      4852        39  DOPE      C36           -24.9203686833       10.4696791442       12.5069403224  MEMB      39              0.0000000000
      4853        39  DOPE      H6X           -25.8635385148        9.8923044616       12.4002160536  MEMB      39              0.0000000000
      4854        39  DOPE      H6Y           -24.3206238160       10.1395387447       13.3819453364  MEMB      39              0.0000000000
      4855        39  DOPE      C37           -24.2512415660        9.9198875146       11.1703953519  MEMB      39              0.0000000000
      4856        39  DOPE      H7X           -23.2724343315       10.4450403808       11.1486731732  MEMB      39              0.0000000000
      4857        39  DOPE      H7Y           -24.1536316547        8.8190110445       11.2838158891  MEMB      39              0.0000000000
      4858        39  DOPE      C38           -25.0155536141       10.2570513102        9.9225062253  MEMB      39              0.0000000000
      4859        39  DOPE      H8X           -24.4871229641        9.8869507059        9.0180130946  MEMB      39              0.0000000000
      4860        39  DOPE      H8Y           -25.1528853287       11.3595262252        9.9193022767  MEMB      39              0.0000000000
      4861        39  DOPE      C39           -26.3980322925        9.6654067775        9.9479549834  MEMB      39              0.0000000000
      4862        39  DOPE      H9X           -26.8280299763        9.3837697897       10.9204682939  MEMB      39              0.0000000000
      4863        39  DOPE      C310          -27.1071873432        9.5364762188        8.8634934767  MEMB      39              0.0000000000
      4864        39  DOPE      H10X          -28.0952089308        9.0590830391        8.9403646888  MEMB      39              0.0000000000
      4865        39  DOPE      C311          -26.7715196083        9.8908678022        7.4262606132  MEMB      39              0.0000000000
      4866        39  DOPE      H11X          -27.3162530690       10.8560931432        7.3492768224  MEMB      39              0.0000000000
      4867        39  DOPE      H11Y          -25.7024141917        9.9855838087        7.1392705105  MEMB      39              0.0000000000
      4868        39  DOPE      C312          -27.3738966943        8.9160504445        6.4201074771  MEMB      39              0.0000000000
      4869        39  DOPE      H12X          -28.4765513315        9.0210661133        6.3338213318  MEMB      39              0.0000000000
      4870        39  DOPE      H12Y          -27.2282651781        7.8856004892        6.8090617069  MEMB      39              0.0000000000
      4871        39  DOPE      C313          -26.8067877794        8.8373661165        5.0146715043  MEMB      39              0.0000000000
      4872        39  DOPE      H13X          -25.7007762296        8.9325482381        5.0593917764  MEMB      39              0.0000000000
      4873        39  DOPE      H13Y          -27.1378523479        7.9419571255        4.4463754106  MEMB      39              0.0000000000
      4874        39  DOPE      C314          -27.1304710859       10.1058724181        4.2153027081  MEMB      39              0.0000000000
      4875        39  DOPE      H14X          -26.7286110971       10.8601023787        4.9252091516  MEMB      39              0.0000000000
      4876        39  DOPE      H14Y          -28.2215324301       10.3123402194        4.1795658842  MEMB      39              0.0000000000
      4877        39  DOPE      C315          -26.4454611671       10.2429927608        2.8446413118  MEMB      39              0.0000000000
      4878        39  DOPE      H15X          -26.7908605782        9.4940203508        2.1002893385  MEMB      39              0.0000000000
      4879        39  DOPE      H15Y          -25.3592599105       10.0472327430        2.9717853333  MEMB      39              0.0000000000
      4880        39  DOPE      C316          -26.5314020350       11.6317793901        2.1843465251  MEMB      39              0.0000000000
      4881        39  DOPE      H16X          -25.5778636776       12.1733181774        2.3627312736  MEMB      39              0.0000000000
      4882        39  DOPE      H16Y          -27.4099936489       12.1898417652        2.5728866644  MEMB      39              0.0000000000
      4883        39  DOPE      C317          -26.8011103365       11.6937172300        0.5951140478  MEMB      39              0.0000000000
      4884        39  DOPE      H17X          -27.7600057736       11.1382353143        0.5158629683  MEMB      39              0.0000000000
      4885        39  DOPE      H17Y          -26.9178603310       12.7699522138        0.3452938653  MEMB      39              0.0000000000
      4886        39  DOPE      C318          -25.5928647971       11.1754950110       -0.2914038426  MEMB      39              0.0000000000
      4887        39  DOPE      H18X          -24.8228712640       11.9553368782       -0.1089813439  MEMB      39              0.0000000000
      4888        39  DOPE      H18Y          -25.1009761989       10.2047792494       -0.0676232812  MEMB      39              0.0000000000
      4889        39  DOPE      H18Z          -25.9028826224       11.3616172329       -1.3419116976  MEMB      39              0.0000000000
      4890        40  CHL1      C3            -11.5406457641       24.7174863908       17.3018650000  MEMB      40              0.0000000000
      4891        40  CHL1      H3            -10.5161655705       25.0759080634       17.0646350000  MEMB      40              0.0000000000
      4892        40  CHL1      O3            -11.8625654359       24.7280070092       18.6981350000  MEMB      40              0.0000000000
      4893        40  CHL1      H3'           -11.3971412961       23.9578370814       19.0325150000  MEMB      40              0.0000000000
      4894        40  CHL1      C4            -12.4593661748       25.7760578643       16.5989850000  MEMB      40              0.0000000000
      4895        40  CHL1      H4A           -13.5128412784       25.5209548966       16.8428050000  MEMB      40              0.0000000000
      4896        40  CHL1      H4B           -12.3969809864       26.7497613208       17.1303350000  MEMB      40              0.0000000000
      4897        40  CHL1      C5            -12.2207365907       25.6772208136       15.0425550000  MEMB      40              0.0000000000
      4898        40  CHL1      C6            -11.9075743221       26.7634738814       14.3076150000  MEMB      40              0.0000000000
      4899        40  CHL1      H6            -11.7703876996       27.7540501786       14.7657950000  MEMB      40              0.0000000000
      4900        40  CHL1      C7            -11.8431451179       26.6959810511       12.7603850000  MEMB      40              0.0000000000
      4901        40  CHL1      H7A           -12.2876400079       27.6275927152       12.3494850000  MEMB      40              0.0000000000
      4902        40  CHL1      H7B           -10.7827264360       26.7364807001       12.4314450000  MEMB      40              0.0000000000
      4903        40  CHL1      C8            -12.4585567355       25.4428829586       12.0889050000  MEMB      40              0.0000000000
      4904        40  CHL1      H8            -13.5362454424       25.6053313720       12.3045750000  MEMB      40              0.0000000000
      4905        40  CHL1      C14           -12.0269358566       25.2995815917       10.6291050000  MEMB      40              0.0000000000
      4906        40  CHL1      H14           -10.9234252344       25.2399321159       10.7433350000  MEMB      40              0.0000000000
      4907        40  CHL1      C15           -12.2355996965       26.4111137561        9.5839150000  MEMB      40              0.0000000000
      4908        40  CHL1      H15A          -13.3233658561       26.6371276078        9.5843050000  MEMB      40              0.0000000000
      4909        40  CHL1      H15B          -11.7232278333       27.3756047447        9.7877850000  MEMB      40              0.0000000000
      4910        40  CHL1      C16           -11.8989090042       25.7032122633        8.2084450000  MEMB      40              0.0000000000
      4911        40  CHL1      H16A          -12.6572000874       25.8711990269        7.4140350000  MEMB      40              0.0000000000
      4912        40  CHL1      H16B          -10.8399080954       25.8554934314        7.9090250000  MEMB      40              0.0000000000
      4913        40  CHL1      C17           -11.8219381254       24.1799201317        8.5656550000  MEMB      40              0.0000000000
      4914        40  CHL1      H17           -10.7489979711       23.9479369863        8.7367950000  MEMB      40              0.0000000000
      4915        40  CHL1      C13           -12.4802683506       24.0561570816        9.9807750000  MEMB      40              0.0000000000
      4916        40  CHL1      C18           -14.0309898071       24.1514415442        9.7711850000  MEMB      40              0.0000000000
      4917        40  CHL1      H18A          -14.4743064584       23.1892679255        9.4365050000  MEMB      40              0.0000000000
      4918        40  CHL1      H18B          -14.6018001307       24.4708740926       10.6692150000  MEMB      40              0.0000000000
      4919        40  CHL1      H18C          -14.2419619302       24.9010308380        8.9787550000  MEMB      40              0.0000000000
      4920        40  CHL1      C12           -12.1213578433       22.7835811584       10.7614050000  MEMB      40              0.0000000000
      4921        40  CHL1      H12A          -12.5683470744       21.8720810541       10.3100750000  MEMB      40              0.0000000000
      4922        40  CHL1      H12B          -11.0257033297       22.6225362368       10.6723150000  MEMB      40              0.0000000000
      4923        40  CHL1      C11           -12.5897456576       22.9505589411       12.2035650000  MEMB      40              0.0000000000
      4924        40  CHL1      H11A          -13.7002733380       22.9402722096       12.1728250000  MEMB      40              0.0000000000
      4925        40  CHL1      H11B          -12.1998285458       22.0523288862       12.7284150000  MEMB      40              0.0000000000
      4926        40  CHL1      C9            -12.0407986735       24.2093455305       12.9011150000  MEMB      40              0.0000000000
      4927        40  CHL1      H9            -10.9318178447       24.1694890646       12.8472950000  MEMB      40              0.0000000000
      4928        40  CHL1      C10           -12.3846153244       24.2893755671       14.4246350000  MEMB      40              0.0000000000
      4929        40  CHL1      C19           -13.8129474023       23.8158423485       14.4835550000  MEMB      40              0.0000000000
      4930        40  CHL1      H19A          -14.0178406071       22.7301948609       14.3664650000  MEMB      40              0.0000000000
      4931        40  CHL1      H19B          -14.2691579987       24.1868765191       15.4261750000  MEMB      40              0.0000000000
      4932        40  CHL1      H19C          -14.4036086949       24.2492055075       13.6483150000  MEMB      40              0.0000000000
      4933        40  CHL1      C1            -11.4937234478       23.2806419826       15.1750750000  MEMB      40              0.0000000000
      4934        40  CHL1      H1A           -11.5535453253       22.2764973429       14.7034550000  MEMB      40              0.0000000000
      4935        40  CHL1      H1B           -10.4451147903       23.5924902999       14.9814250000  MEMB      40              0.0000000000
      4936        40  CHL1      C2            -11.6594061432       23.2814679797       16.7301850000  MEMB      40              0.0000000000
      4937        40  CHL1      H2A           -10.8628200311       22.7280439045       17.2719250000  MEMB      40              0.0000000000
      4938        40  CHL1      H2B           -12.6118934316       22.7876407230       17.0186550000  MEMB      40              0.0000000000
      4939        40  CHL1      C20           -12.3068754286       23.2204644404        7.4142850000  MEMB      40              0.0000000000
      4940        40  CHL1      H20           -13.3927796744       23.4484620706        7.3582350000  MEMB      40              0.0000000000
      4941        40  CHL1      C21           -12.1762550347       21.7053869497        7.7528450000  MEMB      40              0.0000000000
      4942        40  CHL1      H21A          -12.9934528493       21.3249536358        8.4022950000  MEMB      40              0.0000000000
      4943        40  CHL1      H21B          -11.3085512485       21.4254597536        8.3877150000  MEMB      40              0.0000000000
      4944        40  CHL1      H21C          -12.1832222254       21.1155004747        6.8114150000  MEMB      40              0.0000000000
      4945        40  CHL1      C22           -11.8807181993       23.5282856944        5.9471050000  MEMB      40              0.0000000000
      4946        40  CHL1      H22A          -12.5565402662       23.0587443694        5.2007150000  MEMB      40              0.0000000000
      4947        40  CHL1      H22B          -11.8705768188       24.6187252530        5.7345950000  MEMB      40              0.0000000000
      4948        40  CHL1      C23           -10.4752315275       23.0042698677        5.5446050000  MEMB      40              0.0000000000
      4949        40  CHL1      H23A           -9.6860242263       23.5420088117        6.1123250000  MEMB      40              0.0000000000
      4950        40  CHL1      H23B          -10.3084272508       21.9259376290        5.7536650000  MEMB      40              0.0000000000
      4951        40  CHL1      C24           -10.1682696463       23.1136236806        4.0686750000  MEMB      40              0.0000000000
      4952        40  CHL1      H24A          -10.6759908599       22.2675725250        3.5580350000  MEMB      40              0.0000000000
      4953        40  CHL1      H24B          -10.5116497172       24.0698694077        3.6192350000  MEMB      40              0.0000000000
      4954        40  CHL1      C25            -8.7127461005       22.9260595610        3.8052350000  MEMB      40              0.0000000000
      4955        40  CHL1      H25            -8.0587695843       23.5620122250        4.4394150000  MEMB      40              0.0000000000
      4956        40  CHL1      C26            -8.1969942283       21.5517583177        4.1607650000  MEMB      40              0.0000000000
      4957        40  CHL1      H26A           -8.4380893921       20.7292690576        3.4538750000  MEMB      40              0.0000000000
      4958        40  CHL1      H26B           -7.0979081226       21.6585116801        4.0384950000  MEMB      40              0.0000000000
      4959        40  CHL1      H26C           -8.3900820628       21.1947606452        5.1949750000  MEMB      40              0.0000000000
      4960        40  CHL1      C27            -8.3042606268       23.1569515023        2.3946150000  MEMB      40              0.0000000000
      4961        40  CHL1      H27A           -8.6837710183       22.3449441189        1.7381650000  MEMB      40              0.0000000000
      4962        40  CHL1      H27B           -8.7703103571       24.0572356536        1.9400850000  MEMB      40              0.0000000000
      4963        40  CHL1      H27C           -7.2012142105       23.1341756555        2.2638450000  MEMB      40              0.0000000000
      4964        41  DOPE      N             -19.1394909189       23.4847460595       19.2665141759  MEMB      41              0.0000000000
      4965        41  DOPE      HN1           -19.8425871591       23.8408105681       19.9450964957  MEMB      41              0.0000000000
      4966        41  DOPE      HN2           -18.3924020897       23.0869770696       19.8708634877  MEMB      41              0.0000000000
      4967        41  DOPE      HN3           -18.7392837247       24.2055803131       18.6326115356  MEMB      41              0.0000000000
      4968        41  DOPE      C12           -19.7762805945       22.3653252250       18.5095727316  MEMB      41              0.0000000000
      4969        41  DOPE      H12A          -20.3934971459       22.8140409788       17.7020958051  MEMB      41              0.0000000000
      4970        41  DOPE      H12B          -20.4400465598       21.8116623320       19.2075648710  MEMB      41              0.0000000000
      4971        41  DOPE      C11           -18.6839744005       21.3207516874       18.0547967465  MEMB      41              0.0000000000
      4972        41  DOPE      H11A          -17.8265168584       21.7002807880       17.4589399819  MEMB      41              0.0000000000
      4973        41  DOPE      H11B          -19.3390015341       20.7127807632       17.3947726448  MEMB      41              0.0000000000
      4974        41  DOPE      P             -18.3290442043       19.0172817810       19.2382855918  MEMB      41              0.0000000000
      4975        41  DOPE      O13           -17.8553832772       18.5032828462       20.4952867153  MEMB      41              0.0000000000
      4976        41  DOPE      O14           -17.8248239668       18.4180425019       17.9932126146  MEMB      41              0.0000000000
      4977        41  DOPE      O11           -19.9397066646       18.8578102504       19.2742421546  MEMB      41              0.0000000000
      4978        41  DOPE      O12           -18.1049951806       20.6296092747       19.1680892709  MEMB      41              0.0000000000
      4979        41  DOPE      C1            -20.5285906281       17.5706788130       19.6683820910  MEMB      41              0.0000000000
      4980        41  DOPE      HA            -21.0459694866       17.5669320645       20.6515535324  MEMB      41              0.0000000000
      4981        41  DOPE      HB            -19.7291589712       16.8014421109       19.7275821773  MEMB      41              0.0000000000
      4982        41  DOPE      C2            -21.4680701869       17.0535401558       18.5306636877  MEMB      41              0.0000000000
      4983        41  DOPE      HS            -21.8043733451       16.0242340624       18.7791597637  MEMB      41              0.0000000000
      4984        41  DOPE      O21           -20.7555335943       17.0716338103       17.2947502687  MEMB      41              0.0000000000
      4985        41  DOPE      C21           -20.0643390461       15.9655096980       17.0759008469  MEMB      41              0.0000000000
      4986        41  DOPE      O22           -20.1348722978       14.9594886375       17.7727025726  MEMB      41              0.0000000000
      4987        41  DOPE      C22           -19.2782168848       16.0861395739       15.7962286419  MEMB      41              0.0000000000
      4988        41  DOPE      H2R           -18.4239351160       16.7717499445       15.9818680156  MEMB      41              0.0000000000
      4989        41  DOPE      H2S           -19.8121830154       16.5162379423       14.9220340446  MEMB      41              0.0000000000
      4990        41  DOPE      C3            -22.7521780856       17.9635930796       18.3621167710  MEMB      41              0.0000000000
      4991        41  DOPE      HX            -23.1005659158       18.2319590078       19.3823748733  MEMB      41              0.0000000000
      4992        41  DOPE      HY            -23.5006920937       17.3420920064       17.8256613243  MEMB      41              0.0000000000
      4993        41  DOPE      O31           -22.3414489143       19.1123875360       17.5601028449  MEMB      41              0.0000000000
      4994        41  DOPE      C31           -23.1183815623       19.4321411132       16.5362542115  MEMB      41              0.0000000000
      4995        41  DOPE      O32           -24.1299998977       18.8609479118       16.1139733041  MEMB      41              0.0000000000
      4996        41  DOPE      C32           -22.5601608310       20.7168701608       15.7897750045  MEMB      41              0.0000000000
      4997        41  DOPE      H2X           -23.3471779003       21.4688391925       15.5673614451  MEMB      41              0.0000000000
      4998        41  DOPE      H2Y           -21.8125936128       21.2992781964       16.3696588263  MEMB      41              0.0000000000
      4999        41  DOPE      C23           -18.5804929226       14.7624579902       15.4422500334  MEMB      41              0.0000000000
      5000        41  DOPE      H3R           -17.9265583958       14.5266261802       16.3088951118  MEMB      41              0.0000000000
      5001        41  DOPE      H3S           -17.8171758519       14.9121398704       14.6489886654  MEMB      41              0.0000000000
      5002        41  DOPE      C24           -19.4170958340       13.5028512305       15.0670659353  MEMB      41              0.0000000000
      5003        41  DOPE      H4R           -19.7615905786       12.9554382089       15.9703838827  MEMB      41              0.0000000000
      5004        41  DOPE      H4S           -18.6449758265       12.8062479735       14.6760473722  MEMB      41              0.0000000000
      5005        41  DOPE      C25           -20.5945657276       13.7357939894       14.1321486959  MEMB      41              0.0000000000
      5006        41  DOPE      H5R           -21.2524772441       14.5385326568       14.5284866237  MEMB      41              0.0000000000
      5007        41  DOPE      H5S           -21.2236969936       12.8201910027       14.1184971028  MEMB      41              0.0000000000
      5008        41  DOPE      C26           -20.2119006701       14.1605661825       12.6673608832  MEMB      41              0.0000000000
      5009        41  DOPE      H6R           -19.6367826314       13.2520197719       12.3878908707  MEMB      41              0.0000000000
      5010        41  DOPE      H6S           -19.5993791513       15.0783664066       12.7969040642  MEMB      41              0.0000000000
      5011        41  DOPE      C27           -21.2804443897       14.2058759947       11.6732503506  MEMB      41              0.0000000000
      5012        41  DOPE      H7R           -21.6440176339       13.1763432446       11.4678273182  MEMB      41              0.0000000000
      5013        41  DOPE      H7S           -20.9428005834       14.4930915500       10.6545133926  MEMB      41              0.0000000000
      5014        41  DOPE      C28           -22.4506693189       15.0895606949       12.1253990908  MEMB      41              0.0000000000
      5015        41  DOPE      H8R           -22.7991882636       14.5451500858       13.0289878876  MEMB      41              0.0000000000
      5016        41  DOPE      H8S           -23.2454901486       14.9446873333       11.3627767919  MEMB      41              0.0000000000
      5017        41  DOPE      C29           -22.2079212606       16.5845924407       12.1535318619  MEMB      41              0.0000000000
      5018        41  DOPE      H9R           -21.6062512066       16.8286934961       13.0414545130  MEMB      41              0.0000000000
      5019        41  DOPE      C210          -22.4491188450       17.6141662529       11.2763695693  MEMB      41              0.0000000000
      5020        41  DOPE      H10R          -22.1333200976       18.6285844594       11.5613722199  MEMB      41              0.0000000000
      5021        41  DOPE      C211          -23.0371908835       17.3373645678        9.8494069793  MEMB      41              0.0000000000
      5022        41  DOPE      H11R          -23.6250741030       18.1548612133        9.3799248888  MEMB      41              0.0000000000
      5023        41  DOPE      H11S          -23.8116176955       16.5494558388        9.9668120630  MEMB      41              0.0000000000
      5024        41  DOPE      C212          -22.0617613360       16.7153513724        8.8534520681  MEMB      41              0.0000000000
      5025        41  DOPE      H12R          -22.7058437545       16.4299296276        7.9943744101  MEMB      41              0.0000000000
      5026        41  DOPE      H12S          -21.7188098137       15.7573921654        9.2995675414  MEMB      41              0.0000000000
      5027        41  DOPE      C213          -20.9153464392       17.5438750165        8.3389233758  MEMB      41              0.0000000000
      5028        41  DOPE      H13R          -20.2413776691       17.8265775156        9.1756831810  MEMB      41              0.0000000000
      5029        41  DOPE      H13S          -21.3032892170       18.4906137875        7.9059026128  MEMB      41              0.0000000000
      5030        41  DOPE      C214          -20.0651285430       16.8747686762        7.2729364913  MEMB      41              0.0000000000
      5031        41  DOPE      H14R          -19.4780003327       16.0378836527        7.7079369163  MEMB      41              0.0000000000
      5032        41  DOPE      H14S          -19.2721448315       17.6096281850        7.0170468228  MEMB      41              0.0000000000
      5033        41  DOPE      C215          -20.7848430793       16.3611773993        6.0083180697  MEMB      41              0.0000000000
      5034        41  DOPE      H15R          -21.5027735093       17.1419384317        5.6776992853  MEMB      41              0.0000000000
      5035        41  DOPE      H15S          -21.3789827765       15.4674957576        6.2958110546  MEMB      41              0.0000000000
      5036        41  DOPE      C216          -19.9503517038       16.1347506031        4.7982504013  MEMB      41              0.0000000000
      5037        41  DOPE      H16R          -18.8724562084       16.4018276219        4.8318979227  MEMB      41              0.0000000000
      5038        41  DOPE      H16S          -20.2661921469       16.9750912709        4.1437330656  MEMB      41              0.0000000000
      5039        41  DOPE      C217          -20.1811032697       14.8076447237        3.9417983120  MEMB      41              0.0000000000
      5040        41  DOPE      H17R          -20.2442700124       13.9249977279        4.6135606583  MEMB      41              0.0000000000
      5041        41  DOPE      H17S          -19.2874081256       14.6517773759        3.3004431614  MEMB      41              0.0000000000
      5042        41  DOPE      C218          -21.4121516142       14.7933822530        3.1014898029  MEMB      41              0.0000000000
      5043        41  DOPE      H18R          -22.3247165014       14.9372260610        3.7186248476  MEMB      41              0.0000000000
      5044        41  DOPE      H18S          -21.5539285525       13.8327187485        2.5617259805  MEMB      41              0.0000000000
      5045        41  DOPE      H18T          -21.3512848166       15.6114073480        2.3521890250  MEMB      41              0.0000000000
      5046        41  DOPE      C33           -22.0075691670       20.3511417780       14.3499076558  MEMB      41              0.0000000000
      5047        41  DOPE      H3X           -22.9192475491       20.3199960032       13.7157205317  MEMB      41              0.0000000000
      5048        41  DOPE      H3Y           -21.4349856936       19.4015124494       14.4182684652  MEMB      41              0.0000000000
      5049        41  DOPE      C34           -21.1100650707       21.5090638135       13.7674506501  MEMB      41              0.0000000000
      5050        41  DOPE      H4X           -21.2854613788       21.3647010881       12.6799227498  MEMB      41              0.0000000000
      5051        41  DOPE      H4Y           -21.5590751071       22.4396953711       14.1756609457  MEMB      41              0.0000000000
      5052        41  DOPE      C35           -19.6441966902       21.4323361495       14.2129557609  MEMB      41              0.0000000000
      5053        41  DOPE      H5X           -19.5278322020       21.3116863036       15.3112380923  MEMB      41              0.0000000000
      5054        41  DOPE      H5Y           -19.2796027949       22.4557695703       13.9806276490  MEMB      41              0.0000000000
      5055        41  DOPE      C36           -18.7336062099       20.4199700695       13.5052608825  MEMB      41              0.0000000000
      5056        41  DOPE      H6X           -18.4785562136       20.8764232819       12.5249950511  MEMB      41              0.0000000000
      5057        41  DOPE      H6Y           -19.1597313203       19.4041702588       13.3607298638  MEMB      41              0.0000000000
      5058        41  DOPE      C37           -17.4372441348       20.1433417635       14.2526191259  MEMB      41              0.0000000000
      5059        41  DOPE      H7X           -16.9401925282       21.1235765721       14.4151012860  MEMB      41              0.0000000000
      5060        41  DOPE      H7Y           -17.7596587393       19.6930194259       15.2157284086  MEMB      41              0.0000000000
      5061        41  DOPE      C38           -16.4471238850       19.3456691135       13.3960463361  MEMB      41              0.0000000000
      5062        41  DOPE      H8X           -15.4029462345       19.2553599663       13.7646363514  MEMB      41              0.0000000000
      5063        41  DOPE      H8Y           -16.3213252056       19.8086622396       12.3939818606  MEMB      41              0.0000000000
      5064        41  DOPE      C39           -16.8998666487       17.9489455169       13.1881751860  MEMB      41              0.0000000000
      5065        41  DOPE      H9X           -16.8077077951       17.3643713514       14.1154184208  MEMB      41              0.0000000000
      5066        41  DOPE      C310          -17.3820523154       17.3596401910       12.0809359588  MEMB      41              0.0000000000
      5067        41  DOPE      H10X          -17.4883332952       16.2807693738       12.2673284072  MEMB      41              0.0000000000
      5068        41  DOPE      C311          -17.6342179935       17.9405784324       10.6756880336  MEMB      41              0.0000000000
      5069        41  DOPE      H11X          -18.0648157768       17.1656434518       10.0060746385  MEMB      41              0.0000000000
      5070        41  DOPE      H11Y          -18.4669616669       18.6756733806       10.6534591971  MEMB      41              0.0000000000
      5071        41  DOPE      C312          -16.3805093514       18.3838243381        9.9253028915  MEMB      41              0.0000000000
      5072        41  DOPE      H12X          -15.5544543250       17.6464047920       10.0156692199  MEMB      41              0.0000000000
      5073        41  DOPE      H12Y          -15.8824081396       19.2731021464       10.3673451543  MEMB      41              0.0000000000
      5074        41  DOPE      C313          -16.4570469074       18.4179270743        8.3911035781  MEMB      41              0.0000000000
      5075        41  DOPE      H13X          -15.4465983829       18.3884317797        7.9301870254  MEMB      41              0.0000000000
      5076        41  DOPE      H13Y          -16.9475789449       17.4832693137        8.0445295477  MEMB      41              0.0000000000
      5077        41  DOPE      C314          -17.2239789305       19.5468519055        7.6533391824  MEMB      41              0.0000000000
      5078        41  DOPE      H14X          -16.6738202819       20.4777283463        7.9085163568  MEMB      41              0.0000000000
      5079        41  DOPE      H14Y          -18.2698727218       19.5100147637        8.0262608331  MEMB      41              0.0000000000
      5080        41  DOPE      C315          -17.2378062283       19.3360284239        6.0991178087  MEMB      41              0.0000000000
      5081        41  DOPE      H15X          -17.2796439342       18.2374959021        5.9385022240  MEMB      41              0.0000000000
      5082        41  DOPE      H15Y          -16.2613866750       19.6780170639        5.6941856768  MEMB      41              0.0000000000
      5083        41  DOPE      C316          -18.4236141459       20.1016116176        5.3898054042  MEMB      41              0.0000000000
      5084        41  DOPE      H16X          -18.2894722071       21.1495732997        5.7334664115  MEMB      41              0.0000000000
      5085        41  DOPE      H16Y          -19.4099643501       19.6088821687        5.5263781105  MEMB      41              0.0000000000
      5086        41  DOPE      C317          -18.1761429103       20.2712132439        3.8533211939  MEMB      41              0.0000000000
      5087        41  DOPE      H17X          -18.8471583455       21.0342612661        3.4040808806  MEMB      41              0.0000000000
      5088        41  DOPE      H17Y          -17.1418538427       20.6743972424        3.8084808839  MEMB      41              0.0000000000
      5089        41  DOPE      C318          -18.2787282831       19.0303621427        2.8906251520  MEMB      41              0.0000000000
      5090        41  DOPE      H18X          -17.5323957243       18.2556826465        3.1684388604  MEMB      41              0.0000000000
      5091        41  DOPE      H18Y          -19.3128690839       18.6252100461        2.8636842009  MEMB      41              0.0000000000
      5092        41  DOPE      H18Z          -18.0052411379       19.4334692199        1.8921109866  MEMB      41              0.0000000000
      5093        42  DOPE      N             -23.6379948615       -7.6243639074       21.3050678240  MEMB      42              0.0000000000
      5094        42  DOPE      HN1           -23.2566393439       -7.5238327325       22.2673884411  MEMB      42              0.0000000000
      5095        42  DOPE      HN2           -23.1329318420       -6.9654657549       20.6786775339  MEMB      42              0.0000000000
      5096        42  DOPE      HN3           -24.6430792789       -7.3742416589       21.2110242438  MEMB      42              0.0000000000
      5097        42  DOPE      C12           -23.4873798271       -8.9438469903       20.7493200185  MEMB      42              0.0000000000
      5098        42  DOPE      H12A          -24.0028215122       -9.6623727690       21.4218982408  MEMB      42              0.0000000000
      5099        42  DOPE      H12B          -22.3815076058       -9.0437860912       20.7121700273  MEMB      42              0.0000000000
      5100        42  DOPE      C11           -24.2086060905       -9.1872309639       19.3867575282  MEMB      42              0.0000000000
      5101        42  DOPE      H11A          -24.0938738969      -10.2801357731       19.2233058494  MEMB      42              0.0000000000
      5102        42  DOPE      H11B          -23.6248942946       -8.6524401459       18.6072702537  MEMB      42              0.0000000000
      5103        42  DOPE      P             -26.5196984555       -9.1361458517       18.1133467565  MEMB      42              0.0000000000
      5104        42  DOPE      O13           -26.1936971019       -8.0912352320       17.0892489651  MEMB      42              0.0000000000
      5105        42  DOPE      O14           -27.9402949193       -9.2746158313       18.5424562033  MEMB      42              0.0000000000
      5106        42  DOPE      O11           -26.0735137984      -10.5108731970       17.4999927545  MEMB      42              0.0000000000
      5107        42  DOPE      O12           -25.5831316853       -8.8853798415       19.3138099485  MEMB      42              0.0000000000
      5108        42  DOPE      C1            -26.4902691924      -11.7365701813       17.9853507370  MEMB      42              0.0000000000
      5109        42  DOPE      HA            -27.3496134381      -11.5798124199       18.6718459166  MEMB      42              0.0000000000
      5110        42  DOPE      HB            -25.5828357345      -12.1760085817       18.4520189417  MEMB      42              0.0000000000
      5111        42  DOPE      C2            -26.9710570716      -12.6621382926       16.8892174282  MEMB      42              0.0000000000
      5112        42  DOPE      HS            -27.0932687915      -13.6828374442       17.3105938644  MEMB      42              0.0000000000
      5113        42  DOPE      O21           -26.0517683162      -12.5145162777       15.8399946668  MEMB      42              0.0000000000
      5114        42  DOPE      C21           -24.9884185886      -13.3333450763       15.8582484394  MEMB      42              0.0000000000
      5115        42  DOPE      O22           -24.7808701380      -14.1536618196       16.7466331931  MEMB      42              0.0000000000
      5116        42  DOPE      C22           -23.8997473437      -13.0550437381       14.7095272041  MEMB      42              0.0000000000
      5117        42  DOPE      H2R           -22.8977820936      -13.0170407150       15.1880069516  MEMB      42              0.0000000000
      5118        42  DOPE      H2S           -24.1055612668      -12.0379990534       14.3125614651  MEMB      42              0.0000000000
      5119        42  DOPE      C3            -28.3992325425      -12.3490721101       16.3363349025  MEMB      42              0.0000000000
      5120        42  DOPE      HX            -29.0677732659      -12.3510365893       17.2236739901  MEMB      42              0.0000000000
      5121        42  DOPE      HY            -28.7263243906      -13.1660539280       15.6581954169  MEMB      42              0.0000000000
      5122        42  DOPE      O31           -28.4913016962      -11.0176529172       15.7176697071  MEMB      42              0.0000000000
      5123        42  DOPE      C31           -28.3623600598      -10.9738515121       14.3636431799  MEMB      42              0.0000000000
      5124        42  DOPE      O32           -28.1354138729      -11.9581692254       13.7327605284  MEMB      42              0.0000000000
      5125        42  DOPE      C32           -28.5898909667       -9.6457709490       13.7745037185  MEMB      42              0.0000000000
      5126        42  DOPE      H2X           -29.4091556533       -9.6963469803       13.0257922590  MEMB      42              0.0000000000
      5127        42  DOPE      H2Y           -28.8815566939       -8.9027276204       14.5472510246  MEMB      42              0.0000000000
      5128        42  DOPE      C23           -23.9741591182      -14.0369899001       13.5743814989  MEMB      42              0.0000000000
      5129        42  DOPE      H3R           -24.9727985636      -14.0470042066       13.0876174910  MEMB      42              0.0000000000
      5130        42  DOPE      H3S           -23.7484093967      -15.0361602001       14.0045175008  MEMB      42              0.0000000000
      5131        42  DOPE      C24           -23.0225939153      -13.7688054631       12.4957615038  MEMB      42              0.0000000000
      5132        42  DOPE      H4R           -23.1793879720      -14.6500281096       11.8375947156  MEMB      42              0.0000000000
      5133        42  DOPE      H4S           -21.9914130957      -13.7831624604       12.9090181096  MEMB      42              0.0000000000
      5134        42  DOPE      C25           -23.2074619533      -12.4688736013       11.5606066090  MEMB      42              0.0000000000
      5135        42  DOPE      H5R           -22.5202904544      -12.5828300417       10.6950830220  MEMB      42              0.0000000000
      5136        42  DOPE      H5S           -22.8341319128      -11.6506404250       12.2128640639  MEMB      42              0.0000000000
      5137        42  DOPE      C26           -24.5787432822      -12.1693242306       10.9340085037  MEMB      42              0.0000000000
      5138        42  DOPE      H6R           -25.2987456263      -11.7177614844       11.6495565956  MEMB      42              0.0000000000
      5139        42  DOPE      H6S           -25.0686673896      -13.0931265877       10.5586627435  MEMB      42              0.0000000000
      5140        42  DOPE      C27           -24.7079389524      -11.1163082022        9.7951824312  MEMB      42              0.0000000000
      5141        42  DOPE      H7R           -24.1777219105      -11.5873387757        8.9400097238  MEMB      42              0.0000000000
      5142        42  DOPE      H7S           -24.3881517962      -10.1159925944       10.1577100372  MEMB      42              0.0000000000
      5143        42  DOPE      C28           -26.1041253674      -10.8700546756        9.1261676089  MEMB      42              0.0000000000
      5144        42  DOPE      H8R           -25.9016227074      -10.1147144682        8.3370070679  MEMB      42              0.0000000000
      5145        42  DOPE      H8S           -26.7792243642      -10.4259194448        9.8886026953  MEMB      42              0.0000000000
      5146        42  DOPE      C29           -26.6492677683      -12.1433228387        8.4318382786  MEMB      42              0.0000000000
      5147        42  DOPE      H9R           -27.2041077299      -12.7415056385        9.1696253150  MEMB      42              0.0000000000
      5148        42  DOPE      C210          -26.6091681367      -12.5820015140        7.1655162931  MEMB      42              0.0000000000
      5149        42  DOPE      H10R          -27.0016335492      -13.5261382103        6.7598359523  MEMB      42              0.0000000000
      5150        42  DOPE      C211          -25.8182712350      -11.7648280965        6.1238353310  MEMB      42              0.0000000000
      5151        42  DOPE      H11R          -25.7608208912      -10.6818743537        6.3651464209  MEMB      42              0.0000000000
      5152        42  DOPE      H11S          -26.4224697638      -11.7128128578        5.1929427548  MEMB      42              0.0000000000
      5153        42  DOPE      C212          -24.5707951534      -12.4568485986        5.5816200968  MEMB      42              0.0000000000
      5154        42  DOPE      H12R          -24.9611440435      -13.2089421192        4.8630765033  MEMB      42              0.0000000000
      5155        42  DOPE      H12S          -23.9636447493      -12.8933089370        6.4033206017  MEMB      42              0.0000000000
      5156        42  DOPE      C213          -23.6283052820      -11.5949635333        4.6862714716  MEMB      42              0.0000000000
      5157        42  DOPE      H13R          -23.2959352390      -10.7493759730        5.3256716850  MEMB      42              0.0000000000
      5158        42  DOPE      H13S          -24.1307982272      -11.0276997578        3.8738473861  MEMB      42              0.0000000000
      5159        42  DOPE      C214          -22.3793286354      -12.2958683968        4.1774634718  MEMB      42              0.0000000000
      5160        42  DOPE      H14R          -21.9879425268      -12.9999202834        4.9426089387  MEMB      42              0.0000000000
      5161        42  DOPE      H14S          -21.5590504717      -11.5542559541        4.0703389738  MEMB      42              0.0000000000
      5162        42  DOPE      C215          -22.5119765367      -12.8551271597        2.7701669910  MEMB      42              0.0000000000
      5163        42  DOPE      H15R          -21.5889212410      -13.3938254007        2.4666963554  MEMB      42              0.0000000000
      5164        42  DOPE      H15S          -22.5535526826      -11.9908003698        2.0733653322  MEMB      42              0.0000000000
      5165        42  DOPE      C216          -23.7882049206      -13.6682975049        2.4590069083  MEMB      42              0.0000000000
      5166        42  DOPE      H16R          -24.7475610233      -13.2001096507        2.7668327215  MEMB      42              0.0000000000
      5167        42  DOPE      H16S          -23.7554464006      -14.6542803944        2.9699717167  MEMB      42              0.0000000000
      5168        42  DOPE      C217          -23.9206887944      -13.9661626186        0.9254776310  MEMB      42              0.0000000000
      5169        42  DOPE      H17R          -24.2635733914      -13.0172155068        0.4604489890  MEMB      42              0.0000000000
      5170        42  DOPE      H17S          -24.7058678741      -14.7485823435        0.8504134577  MEMB      42              0.0000000000
      5171        42  DOPE      C218          -22.6606578200      -14.6021846023        0.3604309212  MEMB      42              0.0000000000
      5172        42  DOPE      H18R          -21.7050010698      -14.0367858690        0.3973806533  MEMB      42              0.0000000000
      5173        42  DOPE      H18S          -22.6165610918      -14.8293026396       -0.7262131088  MEMB      42              0.0000000000
      5174        42  DOPE      H18T          -22.6096617275      -15.5053770574        1.0053821160  MEMB      42              0.0000000000
      5175        42  DOPE      C33           -27.2932481304       -9.0755737816       13.1110459694  MEMB      42              0.0000000000
      5176        42  DOPE      H3X           -27.0494480029       -9.6435538873       12.1878551179  MEMB      42              0.0000000000
      5177        42  DOPE      H3Y           -26.3971600512       -9.2372114516       13.7476150796  MEMB      42              0.0000000000
      5178        42  DOPE      C34           -27.2958486726       -7.6714277060       12.5236723697  MEMB      42              0.0000000000
      5179        42  DOPE      H4X           -28.3421471151       -7.4329130689       12.2361112744  MEMB      42              0.0000000000
      5180        42  DOPE      H4Y           -26.9377688427       -6.9048843065       13.2437496779  MEMB      42              0.0000000000
      5181        42  DOPE      C35           -26.4917072838       -7.4876459300       11.2110077605  MEMB      42              0.0000000000
      5182        42  DOPE      H5X           -26.8860905455       -6.5655699397       10.7329295030  MEMB      42              0.0000000000
      5183        42  DOPE      H5Y           -26.6719099246       -8.3812399311       10.5759193276  MEMB      42              0.0000000000
      5184        42  DOPE      C36           -25.0423788851       -7.1886490151       11.3302616913  MEMB      42              0.0000000000
      5185        42  DOPE      H6X           -24.5260312764       -7.9315437905       11.9750978259  MEMB      42              0.0000000000
      5186        42  DOPE      H6Y           -24.9421778771       -6.2728085584       11.9511617313  MEMB      42              0.0000000000
      5187        42  DOPE      C37           -24.2008390078       -6.9958108141       10.0641634526  MEMB      42              0.0000000000
      5188        42  DOPE      H7X           -23.1198034548       -7.0581196075       10.3127605564  MEMB      42              0.0000000000
      5189        42  DOPE      H7Y           -24.3779796588       -7.8492462262        9.3752577594  MEMB      42              0.0000000000
      5190        42  DOPE      C38           -24.4738859941       -5.6479675147        9.2844465102  MEMB      42              0.0000000000
      5191        42  DOPE      H8X           -23.6803274373       -5.4797844207        8.5253015644  MEMB      42              0.0000000000
      5192        42  DOPE      H8Y           -24.4568653989       -4.9188971494       10.1225919687  MEMB      42              0.0000000000
      5193        42  DOPE      C39           -25.7867558719       -5.5279964458        8.5928383142  MEMB      42              0.0000000000
      5194        42  DOPE      H9X           -26.4387748908       -4.7753832258        9.0602180804  MEMB      42              0.0000000000
      5195        42  DOPE      C310          -26.3215990305       -6.2481651432        7.5513466363  MEMB      42              0.0000000000
      5196        42  DOPE      H10X          -27.3947159152       -6.0835834898        7.3743349973  MEMB      42              0.0000000000
      5197        42  DOPE      C311          -25.6125097511       -7.3613908572        6.7582134270  MEMB      42              0.0000000000
      5198        42  DOPE      H11X          -24.7251052275       -7.6847382841        7.3432607155  MEMB      42              0.0000000000
      5199        42  DOPE      H11Y          -26.3382469083       -8.1864977697        6.5944296968  MEMB      42              0.0000000000
      5200        42  DOPE      C312          -25.4307550535       -6.9847991228        5.3307490647  MEMB      42              0.0000000000
      5201        42  DOPE      H12X          -24.7344915751       -6.1194889093        5.3586132347  MEMB      42              0.0000000000
      5202        42  DOPE      H12Y          -26.3669405773       -6.6259911515        4.8520696245  MEMB      42              0.0000000000
      5203        42  DOPE      C313          -24.8967598897       -8.0920806687        4.3789986849  MEMB      42              0.0000000000
      5204        42  DOPE      H13X          -23.8274587502       -8.3537600110        4.5287979047  MEMB      42              0.0000000000
      5205        42  DOPE      H13Y          -25.5445784713       -8.9184777328        4.7419316983  MEMB      42              0.0000000000
      5206        42  DOPE      C314          -24.9863500777       -7.6459366801        2.8856634133  MEMB      42              0.0000000000
      5207        42  DOPE      H14X          -24.3518253241       -6.7657785748        2.6468733773  MEMB      42              0.0000000000
      5208        42  DOPE      H14Y          -26.0002753041       -7.2550953420        2.6543209191  MEMB      42              0.0000000000
      5209        42  DOPE      C315          -24.8246645513       -8.7791402958        1.8894715319  MEMB      42              0.0000000000
      5210        42  DOPE      H15X          -24.0413852327       -9.5062301796        2.1930089561  MEMB      42              0.0000000000
      5211        42  DOPE      H15Y          -24.6654236769       -8.3157699392        0.8923500047  MEMB      42              0.0000000000
      5212        42  DOPE      C316          -26.2209050149       -9.4226144993        1.6661761331  MEMB      42              0.0000000000
      5213        42  DOPE      H16X          -26.8914617857       -8.7053857897        1.1463134862  MEMB      42              0.0000000000
      5214        42  DOPE      H16Y          -26.6631817263       -9.7683608070        2.6249099838  MEMB      42              0.0000000000
      5215        42  DOPE      C317          -26.2981287435      -10.6786439555        0.7511271563  MEMB      42              0.0000000000
      5216        42  DOPE      H17X          -25.8408001267      -11.4749056211        1.3765379621  MEMB      42              0.0000000000
      5217        42  DOPE      H17Y          -27.3428242903      -10.9918125094        0.5393306392  MEMB      42              0.0000000000
      5218        42  DOPE      C318          -25.4649161698      -10.5737687674       -0.5002991675  MEMB      42              0.0000000000
      5219        42  DOPE      H18X          -25.8202324596       -9.7538637432       -1.1604708936  MEMB      42              0.0000000000
      5220        42  DOPE      H18Y          -24.4337270855      -10.3525599268       -0.1509613227  MEMB      42              0.0000000000
      5221        42  DOPE      H18Z          -25.3819797900      -11.5248133551       -1.0685910000  MEMB      42              0.0000000000
      5222        43  DOPC      N              14.8015213372       25.4077864523       20.7268043727  MEMB      43              0.0000000000
      5223        43  DOPC      C12            16.0899576618       25.9572886395       20.1372514571  MEMB      43              0.0000000000
      5224        43  DOPC      H12A           16.6932110127       26.2245710805       20.9922635008  MEMB      43              0.0000000000
      5225        43  DOPC      H12B           15.8798652888       26.9077835735       19.6694687764  MEMB      43              0.0000000000
      5226        43  DOPC      C13            14.9420805880       23.9533492909       21.0684653268  MEMB      43              0.0000000000
      5227        43  DOPC      H13A           13.9872014220       23.5105465272       21.3103977780  MEMB      43              0.0000000000
      5228        43  DOPC      H13B           15.4347726809       23.5773202568       20.1840125603  MEMB      43              0.0000000000
      5229        43  DOPC      H13C           15.5953726776       23.8396866805       21.9209266634  MEMB      43              0.0000000000
      5230        43  DOPC      C14            13.6679504246       25.5866284498       19.7855756390  MEMB      43              0.0000000000
      5231        43  DOPC      H14A           13.8362763813       26.5848112393       19.4091483082  MEMB      43              0.0000000000
      5232        43  DOPC      H14B           13.6552453650       25.0530688452       18.8466652752  MEMB      43              0.0000000000
      5233        43  DOPC      H14C           12.7653892263       25.5283004990       20.3758139854  MEMB      43              0.0000000000
      5234        43  DOPC      C15            14.4867310646       26.1426306432       22.0070800297  MEMB      43              0.0000000000
      5235        43  DOPC      H15A           15.2065392431       25.9032226007       22.7758191217  MEMB      43              0.0000000000
      5236        43  DOPC      H15B           13.5192752795       25.8447383924       22.3834966008  MEMB      43              0.0000000000
      5237        43  DOPC      H15C           14.3849647600       27.2165762692       21.9552688702  MEMB      43              0.0000000000
      5238        43  DOPC      C11            16.7875361943       25.1169654772       19.1236503178  MEMB      43              0.0000000000
      5239        43  DOPC      H11A           17.5319573562       25.7702012570       18.6202209576  MEMB      43              0.0000000000
      5240        43  DOPC      H11B           17.3732644507       24.3285102818       19.6428630503  MEMB      43              0.0000000000
      5241        43  DOPC      P              16.5362777396       23.3423712373       17.2286937625  MEMB      43              0.0000000000
      5242        43  DOPC      O13            16.7848601513       22.1560266986       18.0921056661  MEMB      43              0.0000000000
      5243        43  DOPC      O14            17.7316810220       23.8764937260       16.5324816716  MEMB      43              0.0000000000
      5244        43  DOPC      O12            15.9753107574       24.5753363334       18.0808731327  MEMB      43              0.0000000000
      5245        43  DOPC      O11            15.3755126498       23.2022414437       16.2170186699  MEMB      43              0.0000000000
      5246        43  DOPC      C1             15.4701417213       22.0049994217       15.4179747968  MEMB      43              0.0000000000
      5247        43  DOPC      HA             14.4479728095       21.6746381390       15.1345079609  MEMB      43              0.0000000000
      5248        43  DOPC      HB             15.9536001471       21.1213933167       15.8868341711  MEMB      43              0.0000000000
      5249        43  DOPC      C2             16.3501422627       22.3166639511       14.1207336069  MEMB      43              0.0000000000
      5250        43  DOPC      HS             17.3826667312       22.4669945873       14.5023283263  MEMB      43              0.0000000000
      5251        43  DOPC      O21            15.8083508645       23.5478952237       13.5684650002  MEMB      43              0.0000000000
      5252        43  DOPC      C21            16.7063316656       24.3543226049       12.9271892665  MEMB      43              0.0000000000
      5253        43  DOPC      O22            17.9438307401       24.0907903839       12.7680732865  MEMB      43              0.0000000000
      5254        43  DOPC      C22            16.0690444974       25.7632079962       12.5563056026  MEMB      43              0.0000000000
      5255        43  DOPC      H2R            16.2388204373       26.3586003875       13.4788049172  MEMB      43              0.0000000000
      5256        43  DOPC      H2S            14.9731158179       25.6039031227       12.4675182856  MEMB      43              0.0000000000
      5257        43  DOPC      C3             16.2815945805       21.1994839725       12.9979927489  MEMB      43              0.0000000000
      5258        43  DOPC      HX             16.6966839304       20.2767994970       13.4569863418  MEMB      43              0.0000000000
      5259        43  DOPC      HY             16.9636918702       21.4180529493       12.1487036455  MEMB      43              0.0000000000
      5260        43  DOPC      O31            14.9149586201       20.9916630731       12.4979511931  MEMB      43              0.0000000000
      5261        43  DOPC      C31            14.8232763930       20.6728770540       11.1994033102  MEMB      43              0.0000000000
      5262        43  DOPC      O32            15.7156309729       20.2452510649       10.5048430178  MEMB      43              0.0000000000
      5263        43  DOPC      C32            13.4835350155       20.9188503745       10.6005098909  MEMB      43              0.0000000000
      5264        43  DOPC      H2X            12.9100014700       19.9709615012       10.6834958795  MEMB      43              0.0000000000
      5265        43  DOPC      H2Y            12.8861321982       21.5558277720       11.2873079005  MEMB      43              0.0000000000
      5266        43  DOPC      C23            16.6893933657       26.4024267139       11.3122375720  MEMB      43              0.0000000000
      5267        43  DOPC      H3R            16.6507457079       25.5470992989       10.6042528340  MEMB      43              0.0000000000
      5268        43  DOPC      H3S            17.7829470212       26.5913243782       11.3649531274  MEMB      43              0.0000000000
      5269        43  DOPC      C24            15.8722693573       27.5773673094       10.7874855582  MEMB      43              0.0000000000
      5270        43  DOPC      H4R            15.9340245479       28.5077807795       11.3915045718  MEMB      43              0.0000000000
      5271        43  DOPC      H4S            14.8288685420       27.2090045199       10.6877645815  MEMB      43              0.0000000000
      5272        43  DOPC      C25            16.3715520912       27.9571660023        9.3418131371  MEMB      43              0.0000000000
      5273        43  DOPC      H5R            17.4124919741       28.3445074690        9.3147596379  MEMB      43              0.0000000000
      5274        43  DOPC      H5S            15.7132937200       28.8215812437        9.1098587367  MEMB      43              0.0000000000
      5275        43  DOPC      C26            16.2021844001       26.9169134286        8.2456521986  MEMB      43              0.0000000000
      5276        43  DOPC      H6R            16.9846528578       26.1605947466        8.4693622952  MEMB      43              0.0000000000
      5277        43  DOPC      H6S            16.3174473666       27.4446654909        7.2748210534  MEMB      43              0.0000000000
      5278        43  DOPC      C27            14.9089279238       26.0433247495        8.3383528618  MEMB      43              0.0000000000
      5279        43  DOPC      H7R            14.0014688175       26.6826115792        8.3847356800  MEMB      43              0.0000000000
      5280        43  DOPC      H7S            14.8657723474       25.4887087608        9.3000494648  MEMB      43              0.0000000000
      5281        43  DOPC      C28            14.8247226021       25.0901390951        7.2585258757  MEMB      43              0.0000000000
      5282        43  DOPC      H8R            14.8014114987       25.5729210475        6.2581759524  MEMB      43              0.0000000000
      5283        43  DOPC      H8S            13.7779584572       24.7365167858        7.3749610599  MEMB      43              0.0000000000
      5284        43  DOPC      C29            15.7292999142       23.9102092590        7.3210421259  MEMB      43              0.0000000000
      5285        43  DOPC      H9R            15.5975770397       23.3064650864        8.2310652172  MEMB      43              0.0000000000
      5286        43  DOPC      C210           16.6185094261       23.5589761376        6.3475663930  MEMB      43              0.0000000000
      5287        43  DOPC      H10R           17.1365941975       22.6010502317        6.5023762007  MEMB      43              0.0000000000
      5288        43  DOPC      C211           16.8754912902       24.2919048919        5.0379881297  MEMB      43              0.0000000000
      5289        43  DOPC      H11R           17.6863321941       23.8067230651        4.4536449927  MEMB      43              0.0000000000
      5290        43  DOPC      H11S           17.2311681254       25.3377494157        5.1564104358  MEMB      43              0.0000000000
      5291        43  DOPC      C212           15.7332730645       24.3357215397        4.0675401472  MEMB      43              0.0000000000
      5292        43  DOPC      H12R           16.0519152026       24.9295932239        3.1843048132  MEMB      43              0.0000000000
      5293        43  DOPC      H12S           14.8176951280       24.7478743649        4.5431116197  MEMB      43              0.0000000000
      5294        43  DOPC      C213           15.2890716948       22.9055357058        3.6868785373  MEMB      43              0.0000000000
      5295        43  DOPC      H13R           14.4323234058       23.0340264004        2.9913260665  MEMB      43              0.0000000000
      5296        43  DOPC      H13S           14.8003076447       22.3920626268        4.5423177749  MEMB      43              0.0000000000
      5297        43  DOPC      C214           16.4014940631       22.0047031333        3.0407662343  MEMB      43              0.0000000000
      5298        43  DOPC      H14R           17.1890360186       21.7953286520        3.7959224700  MEMB      43              0.0000000000
      5299        43  DOPC      H14S           16.8328445551       22.5465111186        2.1720311241  MEMB      43              0.0000000000
      5300        43  DOPC      C215           15.8099970640       20.7587132104        2.4040896361  MEMB      43              0.0000000000
      5301        43  DOPC      H15R           14.8007806532       20.9233556954        1.9696989355  MEMB      43              0.0000000000
      5302        43  DOPC      H15S           15.6874746578       20.0705365927        3.2676421441  MEMB      43              0.0000000000
      5303        43  DOPC      C216           16.6609393677       19.9160334802        1.4309133593  MEMB      43              0.0000000000
      5304        43  DOPC      H16R           17.6861920651       19.7727426435        1.8342045943  MEMB      43              0.0000000000
      5305        43  DOPC      H16S           16.6994878570       20.5080427067        0.4915722930  MEMB      43              0.0000000000
      5306        43  DOPC      C217           16.1385164034       18.5002087158        1.2068274301  MEMB      43              0.0000000000
      5307        43  DOPC      H17R           16.8047760322       17.9921032060        0.4772740380  MEMB      43              0.0000000000
      5308        43  DOPC      H17S           15.1834833654       18.5540259573        0.6417284173  MEMB      43              0.0000000000
      5309        43  DOPC      C218           16.0053240838       17.5875476120        2.3968814282  MEMB      43              0.0000000000
      5310        43  DOPC      H18R           16.0908190947       16.4883597415        2.2597799828  MEMB      43              0.0000000000
      5311        43  DOPC      H18S           15.0581697061       17.8024709148        2.9363516960  MEMB      43              0.0000000000
      5312        43  DOPC      H18T           16.7204341318       17.8061667857        3.2185539040  MEMB      43              0.0000000000
      5313        43  DOPC      C33            13.4566597326       21.5831694228        9.1823642182  MEMB      43              0.0000000000
      5314        43  DOPC      H3X            14.1681869982       21.0918852272        8.4847328785  MEMB      43              0.0000000000
      5315        43  DOPC      H3Y            13.6525883477       22.6764298435        9.2090962895  MEMB      43              0.0000000000
      5316        43  DOPC      C34            12.1407513205       21.3567228325        8.4492301038  MEMB      43              0.0000000000
      5317        43  DOPC      H4X            11.3737307125       21.9169399001        9.0255608278  MEMB      43              0.0000000000
      5318        43  DOPC      H4Y            11.8766609489       20.2862511257        8.5858595634  MEMB      43              0.0000000000
      5319        43  DOPC      C35            12.2661973619       21.6854866197        6.9610814259  MEMB      43              0.0000000000
      5320        43  DOPC      H5X            12.4884944422       20.6549508398        6.6105086314  MEMB      43              0.0000000000
      5321        43  DOPC      H5Y            13.1998011249       22.2846224271        6.8999147030  MEMB      43              0.0000000000
      5322        43  DOPC      C36            11.0800182954       22.3798238779        6.3608378135  MEMB      43              0.0000000000
      5323        43  DOPC      H6X            10.3094932738       21.5821685881        6.2948210199  MEMB      43              0.0000000000
      5324        43  DOPC      H6Y            10.7678418758       23.2303623854        7.0038398348  MEMB      43              0.0000000000
      5325        43  DOPC      C37            11.3739558881       22.9444468618        4.9057868079  MEMB      43              0.0000000000
      5326        43  DOPC      H7X            10.6916195712       23.7524953977        4.5654999077  MEMB      43              0.0000000000
      5327        43  DOPC      H7Y            12.2857186630       23.5737691375        4.9892334849  MEMB      43              0.0000000000
      5328        43  DOPC      C38            11.4661412721       21.7901940850        3.9235346805  MEMB      43              0.0000000000
      5329        43  DOPC      H8X            12.1617170148       21.0055163882        4.2906534626  MEMB      43              0.0000000000
      5330        43  DOPC      H8Y            11.8690279406       22.3562979659        3.0566261531  MEMB      43              0.0000000000
      5331        43  DOPC      C39            10.1042355676       21.3091183613        3.4322384855  MEMB      43              0.0000000000
      5332        43  DOPC      H9X             9.2404020798       21.3359401595        4.1127329111  MEMB      43              0.0000000000
      5333        43  DOPC      C310            9.9662633151       20.6255460288        2.3109023117  MEMB      43              0.0000000000
      5334        43  DOPC      H10X            8.9323002554       20.3744294390        2.0318696867  MEMB      43              0.0000000000
      5335        43  DOPC      C311           11.0906270962       20.2363223002        1.3565297762  MEMB      43              0.0000000000
      5336        43  DOPC      H11X           10.8220204552       19.3039524313        0.8153654026  MEMB      43              0.0000000000
      5337        43  DOPC      H11Y           12.0367440429       19.9237378379        1.8479306754  MEMB      43              0.0000000000
      5338        43  DOPC      C312           11.4038753357       21.4482950735        0.3802881646  MEMB      43              0.0000000000
      5339        43  DOPC      H12X           11.4357981357       22.4760276330        0.8010822125  MEMB      43              0.0000000000
      5340        43  DOPC      H12Y           10.5909845553       21.3817106587       -0.3740958041  MEMB      43              0.0000000000
      5341        43  DOPC      C313           12.7304148404       21.2185631957       -0.4689155569  MEMB      43              0.0000000000
      5342        43  DOPC      H13X           13.6294437362       21.2220815761        0.1838149226  MEMB      43              0.0000000000
      5343        43  DOPC      H13Y           12.5761676742       20.2344061843       -0.9608133424  MEMB      43              0.0000000000
      5344        43  DOPC      C314           13.0576776036       22.1402143996       -1.6064146516  MEMB      43              0.0000000000
      5345        43  DOPC      H14X           14.0227673893       21.7655817255       -2.0096179084  MEMB      43              0.0000000000
      5346        43  DOPC      H14Y           12.4192855078       22.3234241950       -2.4970366386  MEMB      43              0.0000000000
      5347        43  DOPC      C315           13.2814640252       23.6541634147       -1.2542579253  MEMB      43              0.0000000000
      5348        43  DOPC      H15X           12.3048896881       24.1814950464       -1.3047089290  MEMB      43              0.0000000000
      5349        43  DOPC      H15Y           13.9088565889       23.9861758193       -2.1089328398  MEMB      43              0.0000000000
      5350        43  DOPC      C316           13.9716237200       23.9652847202        0.0441735156  MEMB      43              0.0000000000
      5351        43  DOPC      H16X           13.2376606698       23.7857538124        0.8586585737  MEMB      43              0.0000000000
      5352        43  DOPC      H16Y           14.7506147515       23.1949514234        0.2287817731  MEMB      43              0.0000000000
      5353        43  DOPC      C317           14.6983001054       25.2711264454        0.3005168374  MEMB      43              0.0000000000
      5354        43  DOPC      H17X           15.0309238116       25.3030790058        1.3600753755  MEMB      43              0.0000000000
      5355        43  DOPC      H17Y           15.6512597682       25.2895548716       -0.2703140471  MEMB      43              0.0000000000
      5356        43  DOPC      C318           13.8543355424       26.5194480597       -0.0441071470  MEMB      43              0.0000000000
      5357        43  DOPC      H18X           13.0313861197       26.6294974240        0.6941093162  MEMB      43              0.0000000000
      5358        43  DOPC      H18Y           14.5201809322       27.4083156968       -0.0143547994  MEMB      43              0.0000000000
      5359        43  DOPC      H18Z           13.3075805871       26.4496203327       -1.0087345525  MEMB      43              0.0000000000
      5360        44  DOPE      N              -7.1754799608       26.5498933151       19.3178478722  MEMB      44              0.0000000000
      5361        44  DOPE      HN1            -7.9584835938       26.3603399326       18.6601435603  MEMB      44              0.0000000000
      5362        44  DOPE      HN2            -6.3097425863       26.1941096398       18.8645084167  MEMB      44              0.0000000000
      5363        44  DOPE      HN3            -7.2851386857       25.9838664106       20.1834046507  MEMB      44              0.0000000000
      5364        44  DOPE      C12            -7.0229335429       28.0436619786       19.6091344662  MEMB      44              0.0000000000
      5365        44  DOPE      H12A           -7.7300927234       28.1274489472       20.4619103588  MEMB      44              0.0000000000
      5366        44  DOPE      H12B           -7.2693743721       28.5884220852       18.6727454773  MEMB      44              0.0000000000
      5367        44  DOPE      C11            -5.5847606836       28.4408423254       20.2157932796  MEMB      44              0.0000000000
      5368        44  DOPE      H11A           -5.3966727579       27.7207655677       21.0406771283  MEMB      44              0.0000000000
      5369        44  DOPE      H11B           -5.6527662580       29.4200704465       20.7361859606  MEMB      44              0.0000000000
      5370        44  DOPE      P              -3.8047793851       29.4533773993       18.5545808070  MEMB      44              0.0000000000
      5371        44  DOPE      O13            -3.0914990166       28.9703841097       17.3797870782  MEMB      44              0.0000000000
      5372        44  DOPE      O14            -2.9894164039       30.1669431982       19.5968187212  MEMB      44              0.0000000000
      5373        44  DOPE      O11            -4.9922283894       30.3895821324       18.0953286087  MEMB      44              0.0000000000
      5374        44  DOPE      O12            -4.5957348330       28.2356995236       19.2307091656  MEMB      44              0.0000000000
      5375        44  DOPE      C1             -4.7977828052       31.5305994574       17.3267871082  MEMB      44              0.0000000000
      5376        44  DOPE      HA             -3.8474336408       31.5407154038       16.7514132324  MEMB      44              0.0000000000
      5377        44  DOPE      HB             -4.6166931841       32.3938282581       18.0023338881  MEMB      44              0.0000000000
      5378        44  DOPE      C2             -5.9177005116       31.8079986503       16.2922549282  MEMB      44              0.0000000000
      5379        44  DOPE      HS             -5.9777981047       32.9163927595       16.2456569051  MEMB      44              0.0000000000
      5380        44  DOPE      O21            -7.1088170530       31.2188560539       16.8472467757  MEMB      44              0.0000000000
      5381        44  DOPE      C21            -8.2489807537       31.8914163512       16.7597228652  MEMB      44              0.0000000000
      5382        44  DOPE      O22            -8.3765918088       32.9715772875       16.2646366679  MEMB      44              0.0000000000
      5383        44  DOPE      C22            -9.3154306794       30.9456866229       17.2135231763  MEMB      44              0.0000000000
      5384        44  DOPE      H2R           -10.1778143121       31.5546767931       17.5595673244  MEMB      44              0.0000000000
      5385        44  DOPE      H2S            -9.0055553595       30.4571683287       18.1620210779  MEMB      44              0.0000000000
      5386        44  DOPE      C3             -5.5480979077       31.1763812789       14.8983235228  MEMB      44              0.0000000000
      5387        44  DOPE      HX             -4.6554317432       31.7420892281       14.5556244506  MEMB      44              0.0000000000
      5388        44  DOPE      HY             -6.3748993772       31.3896972076       14.1875377191  MEMB      44              0.0000000000
      5389        44  DOPE      O31            -5.1954426007       29.8287598094       15.0908395275  MEMB      44              0.0000000000
      5390        44  DOPE      C31            -5.3201585314       29.1142113812       14.0311481346  MEMB      44              0.0000000000
      5391        44  DOPE      O32            -5.7040019366       29.4527289757       12.9314620069  MEMB      44              0.0000000000
      5392        44  DOPE      C32            -5.0023990637       27.6332598855       14.3895299765  MEMB      44              0.0000000000
      5393        44  DOPE      H2X            -4.4940032052       27.5462064096       15.3735400064  MEMB      44              0.0000000000
      5394        44  DOPE      H2Y            -6.0147359955       27.2089806680       14.5612333850  MEMB      44              0.0000000000
      5395        44  DOPE      C23            -9.7343792683       29.9708229228       16.0413235068  MEMB      44              0.0000000000
      5396        44  DOPE      H3R            -9.8824048133       30.5121467117       15.0824814375  MEMB      44              0.0000000000
      5397        44  DOPE      H3S           -10.7569160720       29.6642778278       16.3491709618  MEMB      44              0.0000000000
      5398        44  DOPE      C24            -8.8167373468       28.7688005616       15.8793551534  MEMB      44              0.0000000000
      5399        44  DOPE      H4R            -8.5740306747       28.3811788688       16.8918590308  MEMB      44              0.0000000000
      5400        44  DOPE      H4S            -7.9302835474       29.2252863336       15.3893129368  MEMB      44              0.0000000000
      5401        44  DOPE      C25            -9.4102036587       27.6132748830       15.0588371942  MEMB      44              0.0000000000
      5402        44  DOPE      H5R           -10.2744584726       27.2386592847       15.6479447846  MEMB      44              0.0000000000
      5403        44  DOPE      H5S            -8.5783814851       26.9006832580       14.8728099522  MEMB      44              0.0000000000
      5404        44  DOPE      C26            -9.8220216239       27.8846824198       13.6336326195  MEMB      44              0.0000000000
      5405        44  DOPE      H6R           -10.6559313733       28.6158727430       13.5682358604  MEMB      44              0.0000000000
      5406        44  DOPE      H6S           -10.1266105417       26.9459601478       13.1233905326  MEMB      44              0.0000000000
      5407        44  DOPE      C27            -8.7953350645       28.6199327568       12.5853412817  MEMB      44              0.0000000000
      5408        44  DOPE      H7R            -7.9609674412       27.8874351931       12.5453539847  MEMB      44              0.0000000000
      5409        44  DOPE      H7S            -8.4126712975       29.5650362306       13.0265549228  MEMB      44              0.0000000000
      5410        44  DOPE      C28            -9.3004469940       28.8475078520       11.1812633571  MEMB      44              0.0000000000
      5411        44  DOPE      H8R           -10.1757083155       29.4819616264       11.4375967970  MEMB      44              0.0000000000
      5412        44  DOPE      H8S            -9.7111574436       27.9221784279       10.7236571480  MEMB      44              0.0000000000
      5413        44  DOPE      C29            -8.3850344474       29.6434102161       10.4399813684  MEMB      44              0.0000000000
      5414        44  DOPE      H9R            -7.7285007983       30.2868081692       11.0441356840  MEMB      44              0.0000000000
      5415        44  DOPE      C210           -8.0578660866       29.5964200106        9.0978261118  MEMB      44              0.0000000000
      5416        44  DOPE      H10R           -7.2880105594       30.2868627713        8.7228446584  MEMB      44              0.0000000000
      5417        44  DOPE      C211           -8.6243057547       28.7074019853        8.0271601806  MEMB      44              0.0000000000
      5418        44  DOPE      H11R           -9.3693039458       27.9957693559        8.4429458103  MEMB      44              0.0000000000
      5419        44  DOPE      H11S           -7.7230490912       28.2473873633        7.5684178876  MEMB      44              0.0000000000
      5420        44  DOPE      C212           -9.3941113664       29.2650163442        6.7963743979  MEMB      44              0.0000000000
      5421        44  DOPE      H12R          -10.3001163523       29.8774626838        6.9922966258  MEMB      44              0.0000000000
      5422        44  DOPE      H12S           -9.7428590645       28.3333189524        6.3017675714  MEMB      44              0.0000000000
      5423        44  DOPE      C213           -8.4580412479       29.9541999968        5.7152120220  MEMB      44              0.0000000000
      5424        44  DOPE      H13R           -7.5228062790       29.3899057007        5.5121639929  MEMB      44              0.0000000000
      5425        44  DOPE      H13S           -8.2085450349       30.9114509242        6.2209223339  MEMB      44              0.0000000000
      5426        44  DOPE      C214           -9.3139420998       30.3226377380        4.4894318970  MEMB      44              0.0000000000
      5427        44  DOPE      H14R          -10.3666941149       30.5820127568        4.7318341842  MEMB      44              0.0000000000
      5428        44  DOPE      H14S           -9.3753985615       29.4327464380        3.8271344676  MEMB      44              0.0000000000
      5429        44  DOPE      C215           -8.6967820705       31.4398471500        3.6586497834  MEMB      44              0.0000000000
      5430        44  DOPE      H15R           -7.7596103743       31.0174927541        3.2371680195  MEMB      44              0.0000000000
      5431        44  DOPE      H15S           -8.3934680181       32.3852913306        4.1571041153  MEMB      44              0.0000000000
      5432        44  DOPE      C216           -9.6342332446       31.8191680708        2.4369694288  MEMB      44              0.0000000000
      5433        44  DOPE      H16R          -10.5336424906       32.3270238798        2.8461960477  MEMB      44              0.0000000000
      5434        44  DOPE      H16S           -9.9168819966       30.8187422063        2.0450783794  MEMB      44              0.0000000000
      5435        44  DOPE      C217           -9.0515804925       32.6840760883        1.3424983594  MEMB      44              0.0000000000
      5436        44  DOPE      H17R           -8.9276022660       33.7735946223        1.5211016838  MEMB      44              0.0000000000
      5437        44  DOPE      H17S           -9.7779504588       32.8288350377        0.5143969806  MEMB      44              0.0000000000
      5438        44  DOPE      C218           -7.8552952900       32.1696200974        0.6483070515  MEMB      44              0.0000000000
      5439        44  DOPE      H18R           -7.2286667401       33.0334033572        0.3392171136  MEMB      44              0.0000000000
      5440        44  DOPE      H18S           -8.1739866905       31.6980466678       -0.3058279802  MEMB      44              0.0000000000
      5441        44  DOPE      H18T           -7.1216150773       31.5196777603        1.1713833950  MEMB      44              0.0000000000
      5442        44  DOPE      C33            -4.2713002551       26.8823118955       13.2108793211  MEMB      44              0.0000000000
      5443        44  DOPE      H3X            -3.1720951876       27.0145679170       13.3034952286  MEMB      44              0.0000000000
      5444        44  DOPE      H3Y            -4.7343657589       27.2792435601       12.2822582993  MEMB      44              0.0000000000
      5445        44  DOPE      C34            -4.5575477995       25.3758555820       13.1394083508  MEMB      44              0.0000000000
      5446        44  DOPE      H4X            -3.9368600429       24.7797204758       12.4367772363  MEMB      44              0.0000000000
      5447        44  DOPE      H4Y            -4.3506541810       25.1468704626       14.2066856941  MEMB      44              0.0000000000
      5448        44  DOPE      C35            -6.0098979708       24.9578415367       13.0000085146  MEMB      44              0.0000000000
      5449        44  DOPE      H5X            -6.7150164069       25.5277004758       13.6421841902  MEMB      44              0.0000000000
      5450        44  DOPE      H5Y            -6.0070891381       23.8802240217       13.2702940972  MEMB      44              0.0000000000
      5451        44  DOPE      C36            -6.5849697250       25.0649735786       11.5275953273  MEMB      44              0.0000000000
      5452        44  DOPE      H6X            -6.6224225821       26.1082550343       11.1474871231  MEMB      44              0.0000000000
      5453        44  DOPE      H6Y            -7.6084868362       24.6333691847       11.5063514765  MEMB      44              0.0000000000
      5454        44  DOPE      C37            -5.8030808055       24.2322774483       10.4547379529  MEMB      44              0.0000000000
      5455        44  DOPE      H7X            -4.6931287847       24.2752186173       10.4767178903  MEMB      44              0.0000000000
      5456        44  DOPE      H7Y            -6.1909317987       23.1949742842       10.3658837360  MEMB      44              0.0000000000
      5457        44  DOPE      C38            -6.0547232219       24.8276283589        9.0383856382  MEMB      44              0.0000000000
      5458        44  DOPE      H8X            -5.7403403189       25.8932101748        9.0339308905  MEMB      44              0.0000000000
      5459        44  DOPE      H8Y            -7.1371300053       24.9999618123        8.8566777830  MEMB      44              0.0000000000
      5460        44  DOPE      C39            -5.4447733840       24.0000285356        7.9079934515  MEMB      44              0.0000000000
      5461        44  DOPE      H9X            -6.0747625055       23.1246244946        7.6917036139  MEMB      44              0.0000000000
      5462        44  DOPE      C310           -4.4639737920       24.3714694246        7.0639699274  MEMB      44              0.0000000000
      5463        44  DOPE      H10X           -4.3285901606       23.8326590725        6.1145728694  MEMB      44              0.0000000000
      5464        44  DOPE      C311           -3.6291509774       25.6223567896        6.9490766690  MEMB      44              0.0000000000
      5465        44  DOPE      H11X           -3.8127190503       26.4126053792        7.7081093369  MEMB      44              0.0000000000
      5466        44  DOPE      H11Y           -2.5786041635       25.2771847689        6.8417041984  MEMB      44              0.0000000000
      5467        44  DOPE      C312           -3.9602815629       26.3409570430        5.5689605783  MEMB      44              0.0000000000
      5468        44  DOPE      H12X           -3.7533853496       25.7023955742        4.6836617022  MEMB      44              0.0000000000
      5469        44  DOPE      H12Y           -3.2986582191       27.2251819602        5.4476270530  MEMB      44              0.0000000000
      5470        44  DOPE      C313           -5.3816208652       26.8988601802        5.3516584483  MEMB      44              0.0000000000
      5471        44  DOPE      H13X           -6.1134013090       26.0750151759        5.2098910174  MEMB      44              0.0000000000
      5472        44  DOPE      H13Y           -5.6461251666       27.4445681142        6.2825507070  MEMB      44              0.0000000000
      5473        44  DOPE      C314           -5.5243715010       27.8178484497        4.0618185085  MEMB      44              0.0000000000
      5474        44  DOPE      H14X           -4.8956347884       28.6817187552        4.3663502541  MEMB      44              0.0000000000
      5475        44  DOPE      H14Y           -6.5920616148       28.1232869414        4.0291637219  MEMB      44              0.0000000000
      5476        44  DOPE      C315           -5.0384717915       27.0831260110        2.7839423393  MEMB      44              0.0000000000
      5477        44  DOPE      H15X           -5.5018968210       26.0735357702        2.8008431058  MEMB      44              0.0000000000
      5478        44  DOPE      H15Y           -3.9457351309       26.9025152752        2.6966061584  MEMB      44              0.0000000000
      5479        44  DOPE      C316           -5.6042872406       27.7978993990        1.5466995021  MEMB      44              0.0000000000
      5480        44  DOPE      H16X           -5.0667147238       28.7698001298        1.5193889560  MEMB      44              0.0000000000
      5481        44  DOPE      H16Y           -6.6914046949       27.9276621802        1.7355339862  MEMB      44              0.0000000000
      5482        44  DOPE      C317           -5.5564933684       27.0145130200        0.2035483210  MEMB      44              0.0000000000
      5483        44  DOPE      H17X           -4.5304843471       26.6386357786        0.0026928985  MEMB      44              0.0000000000
      5484        44  DOPE      H17Y           -6.1925420322       26.1066550495        0.2780942016  MEMB      44              0.0000000000
      5485        44  DOPE      C318           -5.9477632841       27.8601371006       -1.0597842543  MEMB      44              0.0000000000
      5486        44  DOPE      H18X           -5.7977556917       27.2694280846       -1.9886979914  MEMB      44              0.0000000000
      5487        44  DOPE      H18Y           -6.9606656328       28.3043963039       -0.9549830267  MEMB      44              0.0000000000
      5488        44  DOPE      H18Z           -5.1823315742       28.6645899115       -1.0957229113  MEMB      44              0.0000000000
      5489        45  DOPC      N              30.9389324290       -0.6121724888       20.5886323005  MEMB      45              0.0000000000
      5490        45  DOPC      C12            30.1064665698        0.2287192579       19.6224819943  MEMB      45              0.0000000000
      5491        45  DOPC      H12A           30.6446872326        1.0839756074       19.2413584944  MEMB      45              0.0000000000
      5492        45  DOPC      H12B           29.3652132890        0.7082877578       20.2445412113  MEMB      45              0.0000000000
      5493        45  DOPC      C13            31.3690887929        0.3232457627       21.7711254231  MEMB      45              0.0000000000
      5494        45  DOPC      H13A           31.7383984179       -0.2671015203       22.5966560059  MEMB      45              0.0000000000
      5495        45  DOPC      H13B           32.1758552483        0.9698132941       21.4589100747  MEMB      45              0.0000000000
      5496        45  DOPC      H13C           30.4839334634        0.8250619515       22.1331757667  MEMB      45              0.0000000000
      5497        45  DOPC      C14            32.2143776050       -1.1276659241       19.9144951742  MEMB      45              0.0000000000
      5498        45  DOPC      H14A           32.7661743185       -0.3161928314       19.4634609321  MEMB      45              0.0000000000
      5499        45  DOPC      H14B           32.8494480196       -1.7424149720       20.5351151827  MEMB      45              0.0000000000
      5500        45  DOPC      H14C           31.9269909402       -1.7399460024       19.0725200431  MEMB      45              0.0000000000
      5501        45  DOPC      C15            29.9975928703       -1.7560882683       21.0402490347  MEMB      45              0.0000000000
      5502        45  DOPC      H15A           29.0952061879       -1.2650542113       21.3733912810  MEMB      45              0.0000000000
      5503        45  DOPC      H15B           30.3875745932       -2.1595815848       21.9630206000  MEMB      45              0.0000000000
      5504        45  DOPC      H15C           29.7859707962       -2.4932000073       20.2798002836  MEMB      45              0.0000000000
      5505        45  DOPC      C11            29.4256109131       -0.4086079533       18.3732137949  MEMB      45              0.0000000000
      5506        45  DOPC      H11A           28.9509050908        0.4178662230       17.8023234346  MEMB      45              0.0000000000
      5507        45  DOPC      H11B           30.2803023450       -0.8708654826       17.8345659505  MEMB      45              0.0000000000
      5508        45  DOPC      P              27.3447109548       -1.8124295939       17.5458248731  MEMB      45              0.0000000000
      5509        45  DOPC      O13            26.9431612970       -0.6952696492       16.6439463757  MEMB      45              0.0000000000
      5510        45  DOPC      O14            26.2052559596       -2.4990774745       18.1969524586  MEMB      45              0.0000000000
      5511        45  DOPC      O12            28.4236938388       -1.3201722095       18.6650063226  MEMB      45              0.0000000000
      5512        45  DOPC      O11            28.1414664644       -2.8056394196       16.6380722441  MEMB      45              0.0000000000
      5513        45  DOPC      C1             28.7408489919       -3.9534724521       17.2267216441  MEMB      45              0.0000000000
      5514        45  DOPC      HA             27.9293408956       -4.6428574191       17.5437772023  MEMB      45              0.0000000000
      5515        45  DOPC      HB             29.5019045475       -3.7763847728       18.0165035325  MEMB      45              0.0000000000
      5516        45  DOPC      C2             29.4372671594       -4.7274024506       16.0613415011  MEMB      45              0.0000000000
      5517        45  DOPC      HS             30.2326368055       -5.3715633763       16.4935041099  MEMB      45              0.0000000000
      5518        45  DOPC      O21            29.9887272965       -3.8425288087       15.0794290515  MEMB      45              0.0000000000
      5519        45  DOPC      C21            31.0175541377       -3.0269570236       15.4048786411  MEMB      45              0.0000000000
      5520        45  DOPC      O22            31.5520893013       -2.9616803379       16.5002034459  MEMB      45              0.0000000000
      5521        45  DOPC      C22            31.2591171471       -1.9616904018       14.3004545102  MEMB      45              0.0000000000
      5522        45  DOPC      H2R            31.8108019007       -1.0942702867       14.7218180193  MEMB      45              0.0000000000
      5523        45  DOPC      H2S            30.2276790802       -1.7147125720       13.9696096005  MEMB      45              0.0000000000
      5524        45  DOPC      C3             28.4525468801       -5.6635634258       15.3697647865  MEMB      45              0.0000000000
      5525        45  DOPC      HX             27.9972840002       -6.2740833588       16.1786666876  MEMB      45              0.0000000000
      5526        45  DOPC      HY             29.0539316641       -6.3646140376       14.7523625749  MEMB      45              0.0000000000
      5527        45  DOPC      O31            27.5793384199       -4.9445608478       14.5733983386  MEMB      45              0.0000000000
      5528        45  DOPC      C31            27.7703919922       -4.7463131540       13.2373052450  MEMB      45              0.0000000000
      5529        45  DOPC      O32            28.5626392695       -5.3532797973       12.5418354792  MEMB      45              0.0000000000
      5530        45  DOPC      C32            26.9254020081       -3.5269840682       12.9012664219  MEMB      45              0.0000000000
      5531        45  DOPC      H2X            26.4387620510       -3.1293973908       13.8174688966  MEMB      45              0.0000000000
      5532        45  DOPC      H2Y            27.5873840711       -2.6981286533       12.5709643669  MEMB      45              0.0000000000
      5533        45  DOPC      C23            32.1111466296       -2.5686324418       13.1464465043  MEMB      45              0.0000000000
      5534        45  DOPC      H3R            31.4973949549       -3.3807714383       12.7014068887  MEMB      45              0.0000000000
      5535        45  DOPC      H3S            33.0376592171       -2.9521918935       13.6247533295  MEMB      45              0.0000000000
      5536        45  DOPC      C24            32.3516701036       -1.5605567197       11.9726496738  MEMB      45              0.0000000000
      5537        45  DOPC      H4R            32.8761788722       -2.0286894582       11.1123805235  MEMB      45              0.0000000000
      5538        45  DOPC      H4S            32.8454502212       -0.6387936729       12.3479562197  MEMB      45              0.0000000000
      5539        45  DOPC      C25            30.9815086796       -1.0611791665       11.4430999830  MEMB      45              0.0000000000
      5540        45  DOPC      H5R            30.3330817519       -0.4840410278       12.1364799133  MEMB      45              0.0000000000
      5541        45  DOPC      H5S            30.5025981667       -2.0576307574       11.3333285832  MEMB      45              0.0000000000
      5542        45  DOPC      C26            30.9531254998       -0.4909049543       10.0379627204  MEMB      45              0.0000000000
      5543        45  DOPC      H6R            31.6134590321       -0.9717156893        9.2849009172  MEMB      45              0.0000000000
      5544        45  DOPC      H6S            31.4406180153        0.4965187931       10.1851577128  MEMB      45              0.0000000000
      5545        45  DOPC      C27            29.5380074093       -0.5750655834        9.5597108415  MEMB      45              0.0000000000
      5546        45  DOPC      H7R            28.8363811438       -0.1981476512       10.3342911533  MEMB      45              0.0000000000
      5547        45  DOPC      H7S            29.3740984804       -1.6640454397        9.4128164875  MEMB      45              0.0000000000
      5548        45  DOPC      C28            29.3864079356        0.0826608203        8.1683692414  MEMB      45              0.0000000000
      5549        45  DOPC      H8R            29.8296591451        1.1005734806        8.2096467728  MEMB      45              0.0000000000
      5550        45  DOPC      H8S            28.3097240697        0.1741446965        7.9100994257  MEMB      45              0.0000000000
      5551        45  DOPC      C29            30.0694668319       -0.7937174517        7.2123600223  MEMB      45              0.0000000000
      5552        45  DOPC      H9R            31.1619104502       -0.6698509685        7.1773666282  MEMB      45              0.0000000000
      5553        45  DOPC      C210           29.5984771036       -1.7533979646        6.3702643817  MEMB      45              0.0000000000
      5554        45  DOPC      H10R           30.2143449901       -2.0325086749        5.5026218041  MEMB      45              0.0000000000
      5555        45  DOPC      C211           28.1289353372       -2.0640167522        6.3408064628  MEMB      45              0.0000000000
      5556        45  DOPC      H11R           27.5332389061       -1.1563596195        6.1049561882  MEMB      45              0.0000000000
      5557        45  DOPC      H11S           27.7994628333       -2.4775069073        7.3179424363  MEMB      45              0.0000000000
      5558        45  DOPC      C212           27.6412846369       -3.2080550554        5.3775949403  MEMB      45              0.0000000000
      5559        45  DOPC      H12R           27.9789580253       -2.9490248796        4.3513393274  MEMB      45              0.0000000000
      5560        45  DOPC      H12S           26.5317001812       -3.2459566020        5.3362841495  MEMB      45              0.0000000000
      5561        45  DOPC      C213           28.2572591758       -4.6097853938        5.6778774225  MEMB      45              0.0000000000
      5562        45  DOPC      H13R           28.1882933014       -4.7795265056        6.7736659035  MEMB      45              0.0000000000
      5563        45  DOPC      H13S           29.3385560583       -4.5537595566        5.4289209534  MEMB      45              0.0000000000
      5564        45  DOPC      C214           27.7141542437       -5.7563389170        4.7380275590  MEMB      45              0.0000000000
      5565        45  DOPC      H14R           26.6789119684       -5.9556981228        5.0885277811  MEMB      45              0.0000000000
      5566        45  DOPC      H14S           28.3105073754       -6.6373536647        5.0581792869  MEMB      45              0.0000000000
      5567        45  DOPC      C215           28.0170373563       -5.4514751793        3.2599512043  MEMB      45              0.0000000000
      5568        45  DOPC      H15R           28.2357672727       -6.4635621666        2.8572627815  MEMB      45              0.0000000000
      5569        45  DOPC      H15S           28.8518478063       -4.7209163598        3.1991565207  MEMB      45              0.0000000000
      5570        45  DOPC      C216           26.7370890503       -4.9256043917        2.5341161451  MEMB      45              0.0000000000
      5571        45  DOPC      H16R           26.4753238393       -3.8802952901        2.8045411599  MEMB      45              0.0000000000
      5572        45  DOPC      H16S           26.0170861743       -5.5961888239        3.0500944706  MEMB      45              0.0000000000
      5573        45  DOPC      C217           26.6311790121       -5.1458313974        0.9842437629  MEMB      45              0.0000000000
      5574        45  DOPC      H17R           26.9269983909       -6.1946484801        0.7679221231  MEMB      45              0.0000000000
      5575        45  DOPC      H17S           27.4031196217       -4.4702340817        0.5576327745  MEMB      45              0.0000000000
      5576        45  DOPC      C218           25.2639423628       -4.9263874746        0.3704581199  MEMB      45              0.0000000000
      5577        45  DOPC      H18R           24.5299509584       -5.7340734607        0.5783547120  MEMB      45              0.0000000000
      5578        45  DOPC      H18S           25.2925661248       -4.9675135056       -0.7394112470  MEMB      45              0.0000000000
      5579        45  DOPC      H18T           24.8650389027       -3.9145022039        0.5969209279  MEMB      45              0.0000000000
      5580        45  DOPC      C33            25.8202498968       -3.8302864729       11.9029129761  MEMB      45              0.0000000000
      5581        45  DOPC      H3X            25.2234215924       -4.6378626436       12.3782418652  MEMB      45              0.0000000000
      5582        45  DOPC      H3Y            26.1331428028       -4.2902954292       10.9412423294  MEMB      45              0.0000000000
      5583        45  DOPC      C34            25.1121987446       -2.5359890421       11.6056566562  MEMB      45              0.0000000000
      5584        45  DOPC      H4X            25.0886415216       -1.8318141873       12.4646701282  MEMB      45              0.0000000000
      5585        45  DOPC      H4Y            24.0625700676       -2.8751112230       11.4730039332  MEMB      45              0.0000000000
      5586        45  DOPC      C35            25.7084483433       -1.7347824807       10.4233192726  MEMB      45              0.0000000000
      5587        45  DOPC      H5X            25.7518746205       -2.2460807209        9.4379215879  MEMB      45              0.0000000000
      5588        45  DOPC      H5Y            26.6908388637       -1.2891831391       10.6891605593  MEMB      45              0.0000000000
      5589        45  DOPC      C36            24.8419083367       -0.4717989656       10.0608951735  MEMB      45              0.0000000000
      5590        45  DOPC      H6X            23.7498015452       -0.6112659038        9.9119904653  MEMB      45              0.0000000000
      5591        45  DOPC      H6Y            24.8873349612        0.0990217129       11.0129568549  MEMB      45              0.0000000000
      5592        45  DOPC      C37            25.3060476599        0.2486731714        8.8768812168  MEMB      45              0.0000000000
      5593        45  DOPC      H7X            26.3637537486        0.5864840966        8.8386371843  MEMB      45              0.0000000000
      5594        45  DOPC      H7Y            25.2249486213       -0.4869005234        8.0482221244  MEMB      45              0.0000000000
      5595        45  DOPC      C38            24.5204891931        1.4621441134        8.4900934709  MEMB      45              0.0000000000
      5596        45  DOPC      H8X            24.4870588073        2.1131159546        9.3897812812  MEMB      45              0.0000000000
      5597        45  DOPC      H8Y            23.5130799491        1.0239885780        8.3243595485  MEMB      45              0.0000000000
      5598        45  DOPC      C39            25.1690545642        2.3018400215        7.3823718075  MEMB      45              0.0000000000
      5599        45  DOPC      H9X            25.6704149605        3.2259553150        7.7058671448  MEMB      45              0.0000000000
      5600        45  DOPC      C310           24.9867889033        2.1749333999        6.0580421009  MEMB      45              0.0000000000
      5601        45  DOPC      H10X           25.5125534149        2.8257941780        5.3439327175  MEMB      45              0.0000000000
      5602        45  DOPC      C311           24.1420647418        1.1356437005        5.4075352912  MEMB      45              0.0000000000
      5603        45  DOPC      H11X           23.4232904897        1.6296127806        4.7192918525  MEMB      45              0.0000000000
      5604        45  DOPC      H11Y           23.4365790978        0.5640638527        6.0477751927  MEMB      45              0.0000000000
      5605        45  DOPC      C312           24.9866341360        0.1526589746        4.5984097637  MEMB      45              0.0000000000
      5606        45  DOPC      H12X           24.3307087476       -0.5816299674        4.0837228206  MEMB      45              0.0000000000
      5607        45  DOPC      H12Y           25.6012339431       -0.3444288208        5.3791101473  MEMB      45              0.0000000000
      5608        45  DOPC      C313           25.8807992080        0.7278329555        3.4654520919  MEMB      45              0.0000000000
      5609        45  DOPC      H13X           25.2410538497        1.4816213595        2.9586484483  MEMB      45              0.0000000000
      5610        45  DOPC      H13Y           26.6139631786        1.4040525002        3.9548595473  MEMB      45              0.0000000000
      5611        45  DOPC      C314           26.7200286874       -0.2898040535        2.6459323723  MEMB      45              0.0000000000
      5612        45  DOPC      H14X           27.4985578544       -0.7000342826        3.3241097020  MEMB      45              0.0000000000
      5613        45  DOPC      H14Y           26.0126367754       -1.0744346316        2.3020264112  MEMB      45              0.0000000000
      5614        45  DOPC      C315           27.3837819274        0.3613363033        1.4335674752  MEMB      45              0.0000000000
      5615        45  DOPC      H15X           28.1258654473        1.1005197089        1.8040257122  MEMB      45              0.0000000000
      5616        45  DOPC      H15Y           26.5453420824        0.8575704014        0.8996282595  MEMB      45              0.0000000000
      5617        45  DOPC      C316           28.0135317496       -0.7080017615        0.4888123827  MEMB      45              0.0000000000
      5618        45  DOPC      H16X           27.2453786638       -1.4483480828        0.1787340844  MEMB      45              0.0000000000
      5619        45  DOPC      H16Y           28.3459501091       -0.2041535214       -0.4439019077  MEMB      45              0.0000000000
      5620        45  DOPC      C317           29.2491514345       -1.4683557193        0.9925584251  MEMB      45              0.0000000000
      5621        45  DOPC      H17X           29.8557018341       -0.6904112013        1.5036554870  MEMB      45              0.0000000000
      5622        45  DOPC      H17Y           28.9539963085       -2.0563310140        1.8878184728  MEMB      45              0.0000000000
      5623        45  DOPC      C318           30.0928820239       -2.2367510595        0.0059030998  MEMB      45              0.0000000000
      5624        45  DOPC      H18X           30.4852975429       -1.5165491081       -0.7435233760  MEMB      45              0.0000000000
      5625        45  DOPC      H18Y           30.9899464376       -2.7591518841        0.4017487106  MEMB      45              0.0000000000
      5626        45  DOPC      H18Z           29.5872484454       -3.0320853824       -0.5823969034  MEMB      45              0.0000000000
      5627        46  DOPE      N             -13.5334581269      -27.3045149132       21.9172172483  MEMB      46              0.0000000000
      5628        46  DOPE      HN1           -14.0798293267      -26.4261824572       22.0249696396  MEMB      46              0.0000000000
      5629        46  DOPE      HN2           -13.7976923642      -27.9374040964       22.6990302785  MEMB      46              0.0000000000
      5630        46  DOPE      HN3           -12.5152938006      -27.1103334855       22.0022758397  MEMB      46              0.0000000000
      5631        46  DOPE      C12           -13.8519441751      -27.9887911965       20.5955709309  MEMB      46              0.0000000000
      5632        46  DOPE      H12A          -14.8643557092      -28.4140917965       20.7642821203  MEMB      46              0.0000000000
      5633        46  DOPE      H12B          -13.1620493990      -28.8552391701       20.6829450637  MEMB      46              0.0000000000
      5634        46  DOPE      C11           -13.6844857056      -26.9731826067       19.3745356392  MEMB      46              0.0000000000
      5635        46  DOPE      H11A          -14.3026013708      -26.0569800343       19.4877902147  MEMB      46              0.0000000000
      5636        46  DOPE      H11B          -14.0098434128      -27.5081569117       18.4567852392  MEMB      46              0.0000000000
      5637        46  DOPE      P             -11.7145651830      -26.1475260079       17.9432061241  MEMB      46              0.0000000000
      5638        46  DOPE      O13           -10.3785911264      -25.6073145622       18.3002076842  MEMB      46              0.0000000000
      5639        46  DOPE      O14           -12.7372073854      -25.2834679719       17.3463099083  MEMB      46              0.0000000000
      5640        46  DOPE      O11           -11.4596450283      -27.5278091019       17.1954798604  MEMB      46              0.0000000000
      5641        46  DOPE      O12           -12.3021112657      -26.5371240419       19.3274726039  MEMB      46              0.0000000000
      5642        46  DOPE      C1            -10.6724979974      -28.4940311189       17.8737056627  MEMB      46              0.0000000000
      5643        46  DOPE      HA            -11.2678808325      -28.9682184244       18.6830181635  MEMB      46              0.0000000000
      5644        46  DOPE      HB             -9.7046030846      -28.1032840828       18.2542539933  MEMB      46              0.0000000000
      5645        46  DOPE      C2            -10.1366280778      -29.5472651071       16.9282071419  MEMB      46              0.0000000000
      5646        46  DOPE      HS             -9.1404349880      -29.8014451444       17.3492923831  MEMB      46              0.0000000000
      5647        46  DOPE      O21            -9.9834531606      -29.1893267840       15.5042081261  MEMB      46              0.0000000000
      5648        46  DOPE      C21            -8.9607400795      -28.3849973435       15.3270833154  MEMB      46              0.0000000000
      5649        46  DOPE      O22            -8.2273889097      -27.9604775206       16.1764071155  MEMB      46              0.0000000000
      5650        46  DOPE      C22            -8.8838362405      -28.0494918610       13.8879723167  MEMB      46              0.0000000000
      5651        46  DOPE      H2R            -9.8715195924      -28.1945523723       13.4003656063  MEMB      46              0.0000000000
      5652        46  DOPE      H2S            -8.2189835106      -28.7499659031       13.3387654234  MEMB      46              0.0000000000
      5653        46  DOPE      C3            -11.0017220010      -30.7967389946       17.0192541454  MEMB      46              0.0000000000
      5654        46  DOPE      HX            -10.8863356226      -31.3342026619       17.9847281440  MEMB      46              0.0000000000
      5655        46  DOPE      HY            -10.6502529688      -31.4904356225       16.2257962835  MEMB      46              0.0000000000
      5656        46  DOPE      O31           -12.3141085709      -30.4427188031       16.8702827980  MEMB      46              0.0000000000
      5657        46  DOPE      C31           -12.8397447845      -30.4818214987       15.6853000327  MEMB      46              0.0000000000
      5658        46  DOPE      O32           -12.4955222464      -31.1955787422       14.7516818583  MEMB      46              0.0000000000
      5659        46  DOPE      C32           -14.1705901621      -29.7177061591       15.7162461509  MEMB      46              0.0000000000
      5660        46  DOPE      H2X           -14.9800665523      -30.4669527152       15.5832114489  MEMB      46              0.0000000000
      5661        46  DOPE      H2Y           -14.2881144028      -29.2351869719       16.7100691931  MEMB      46              0.0000000000
      5662        46  DOPE      C23            -8.4988008904      -26.5820635188       13.8304231609  MEMB      46              0.0000000000
      5663        46  DOPE      H3R            -8.1286944552      -26.3448947661       12.8100835132  MEMB      46              0.0000000000
      5664        46  DOPE      H3S            -7.5930028325      -26.3687043139       14.4373244459  MEMB      46              0.0000000000
      5665        46  DOPE      C24            -9.7019788744      -25.6330469081       14.1248386835  MEMB      46              0.0000000000
      5666        46  DOPE      H4R           -10.2425283815      -26.0245720550       15.0130026102  MEMB      46              0.0000000000
      5667        46  DOPE      H4S           -10.3482850245      -25.6120360548       13.2214186264  MEMB      46              0.0000000000
      5668        46  DOPE      C25            -9.3483228980      -24.2128798842       14.4908955055  MEMB      46              0.0000000000
      5669        46  DOPE      H5R            -8.4584154658      -24.3250481403       15.1464898267  MEMB      46              0.0000000000
      5670        46  DOPE      H5S           -10.1220566289      -23.6662233173       15.0712606671  MEMB      46              0.0000000000
      5671        46  DOPE      C26            -9.2285257999      -23.2896506683       13.2487191008  MEMB      46              0.0000000000
      5672        46  DOPE      H6R            -8.6066923691      -23.7725382133       12.4648414981  MEMB      46              0.0000000000
      5673        46  DOPE      H6S            -8.7249455630      -22.3950225891       13.6734178324  MEMB      46              0.0000000000
      5674        46  DOPE      C27           -10.6034315821      -22.8899848091       12.5993148029  MEMB      46              0.0000000000
      5675        46  DOPE      H7R           -10.5532225880      -21.7825586255       12.5257759023  MEMB      46              0.0000000000
      5676        46  DOPE      H7S           -11.2940877799      -23.2845109162       13.3749848676  MEMB      46              0.0000000000
      5677        46  DOPE      C28           -11.0235610357      -23.5481820391       11.2978304897  MEMB      46              0.0000000000
      5678        46  DOPE      H8R           -10.8741680289      -24.6348189486       11.4745303132  MEMB      46              0.0000000000
      5679        46  DOPE      H8S           -10.2895401900      -23.1817381944       10.5486618552  MEMB      46              0.0000000000
      5680        46  DOPE      C29           -12.5179682588      -23.2419130641       10.9247435485  MEMB      46              0.0000000000
      5681        46  DOPE      H9R           -13.1893727698      -23.0558649113       11.7759788744  MEMB      46              0.0000000000
      5682        46  DOPE      C210          -13.1343435409      -23.4240380265        9.7414041908  MEMB      46              0.0000000000
      5683        46  DOPE      H10R          -14.1546366169      -23.0457548528        9.5804569445  MEMB      46              0.0000000000
      5684        46  DOPE      C211          -12.4831579519      -23.9855643522        8.4779864668  MEMB      46              0.0000000000
      5685        46  DOPE      H11R          -12.7047628089      -25.0530194938        8.2640906793  MEMB      46              0.0000000000
      5686        46  DOPE      H11S          -11.3802364200      -23.9496216360        8.6068010543  MEMB      46              0.0000000000
      5687        46  DOPE      C212          -12.7925817505      -23.1952034587        7.2183808469  MEMB      46              0.0000000000
      5688        46  DOPE      H12R          -12.5015631702      -22.1252370946        7.2876672545  MEMB      46              0.0000000000
      5689        46  DOPE      H12S          -13.8891846222      -23.1653391278        7.0426207961  MEMB      46              0.0000000000
      5690        46  DOPE      C213          -12.2548025915      -23.8998650201        5.8950520300  MEMB      46              0.0000000000
      5691        46  DOPE      H13R          -12.1326612010      -24.9993024006        5.9982024623  MEMB      46              0.0000000000
      5692        46  DOPE      H13S          -11.2163105848      -23.5267473127        5.7660624169  MEMB      46              0.0000000000
      5693        46  DOPE      C214          -13.1684178579      -23.6281268396        4.7096758246  MEMB      46              0.0000000000
      5694        46  DOPE      H14R          -13.1291485057      -22.5526125154        4.4339076371  MEMB      46              0.0000000000
      5695        46  DOPE      H14S          -14.1483485421      -23.9163427526        5.1466971125  MEMB      46              0.0000000000
      5696        46  DOPE      C215          -12.9709055068      -24.4106087618        3.3427875105  MEMB      46              0.0000000000
      5697        46  DOPE      H15R          -12.9920710569      -25.4873647633        3.6156785443  MEMB      46              0.0000000000
      5698        46  DOPE      H15S          -11.9616341227      -24.1580391868        2.9530416888  MEMB      46              0.0000000000
      5699        46  DOPE      C216          -13.9743200380      -24.0450087650        2.2516804117  MEMB      46              0.0000000000
      5700        46  DOPE      H16R          -14.0161281741      -22.9385170722        2.1608532266  MEMB      46              0.0000000000
      5701        46  DOPE      H16S          -14.9728957204      -24.4905332776        2.4483431384  MEMB      46              0.0000000000
      5702        46  DOPE      C217          -13.6297120885      -24.5386617978        0.7715585236  MEMB      46              0.0000000000
      5703        46  DOPE      H17R          -13.3295933521      -25.6070740182        0.8239482244  MEMB      46              0.0000000000
      5704        46  DOPE      H17S          -12.6765192217      -24.0276502749        0.5173711063  MEMB      46              0.0000000000
      5705        46  DOPE      C218          -14.7035780594      -24.5422350182       -0.1782717482  MEMB      46              0.0000000000
      5706        46  DOPE      H18R          -15.5883256413      -25.1815979389        0.0285064566  MEMB      46              0.0000000000
      5707        46  DOPE      H18S          -14.2739023072      -24.8578786998       -1.1529869032  MEMB      46              0.0000000000
      5708        46  DOPE      H18T          -15.0240217009      -23.4833742776       -0.2805015714  MEMB      46              0.0000000000
      5709        46  DOPE      C33           -14.2857550974      -28.7545958753       14.5221446548  MEMB      46              0.0000000000
      5710        46  DOPE      H3X           -15.3008297679      -28.3099301642       14.4432970102  MEMB      46              0.0000000000
      5711        46  DOPE      H3Y           -14.1781441468      -29.3365195867       13.5818760940  MEMB      46              0.0000000000
      5712        46  DOPE      C34           -13.2440226249      -27.6295880964       14.4879650173  MEMB      46              0.0000000000
      5713        46  DOPE      H4X           -13.3042381204      -27.2439903291       15.5281621280  MEMB      46              0.0000000000
      5714        46  DOPE      H4Y           -12.2780077471      -28.1710550765       14.3988036001  MEMB      46              0.0000000000
      5715        46  DOPE      C35           -13.3463845041      -26.6041997585       13.3963936801  MEMB      46              0.0000000000
      5716        46  DOPE      H5X           -12.5981061070      -25.7868848525       13.4763730206  MEMB      46              0.0000000000
      5717        46  DOPE      H5Y           -14.3317030967      -26.0915967767       13.4229696391  MEMB      46              0.0000000000
      5718        46  DOPE      C36           -13.3077207362      -27.1054609926       11.9449060469  MEMB      46              0.0000000000
      5719        46  DOPE      H6X           -13.4812227943      -26.2062251292       11.3159443594  MEMB      46              0.0000000000
      5720        46  DOPE      H6Y           -14.0615521480      -27.9120339114       11.8204091135  MEMB      46              0.0000000000
      5721        46  DOPE      C37           -11.9203366930      -27.6683764156       11.3696898275  MEMB      46              0.0000000000
      5722        46  DOPE      H7X           -11.1835916731      -26.8669770835       11.5916964006  MEMB      46              0.0000000000
      5723        46  DOPE      H7Y           -11.6783789608      -28.5152695849       12.0468523771  MEMB      46              0.0000000000
      5724        46  DOPE      C38           -11.9890712167      -28.3057604789        9.9383637511  MEMB      46              0.0000000000
      5725        46  DOPE      H8X           -10.9671505255      -28.6789569260        9.7131459918  MEMB      46              0.0000000000
      5726        46  DOPE      H8Y           -12.0797533352      -27.4468356035        9.2395464743  MEMB      46              0.0000000000
      5727        46  DOPE      C39           -12.9990354118      -29.3427753780        9.8383741435  MEMB      46              0.0000000000
      5728        46  DOPE      H9X           -13.0645877257      -30.0782863156       10.6536818680  MEMB      46              0.0000000000
      5729        46  DOPE      C310          -13.8971740733      -29.3851434948        8.8037194448  MEMB      46              0.0000000000
      5730        46  DOPE      H10X          -14.5313406849      -30.2791805270        8.7113589502  MEMB      46              0.0000000000
      5731        46  DOPE      C311          -13.9859165716      -28.4386497132        7.6473895773  MEMB      46              0.0000000000
      5732        46  DOPE      H11X          -15.0473105039      -28.5527295610        7.3395749650  MEMB      46              0.0000000000
      5733        46  DOPE      H11Y          -13.9643730628      -27.3571262446        7.9006950707  MEMB      46              0.0000000000
      5734        46  DOPE      C312          -13.0041754088      -28.7613122849        6.5230244640  MEMB      46              0.0000000000
      5735        46  DOPE      H12X          -12.9893905876      -29.8648129205        6.3950058367  MEMB      46              0.0000000000
      5736        46  DOPE      H12Y          -11.9879741901      -28.3939422541        6.7812788775  MEMB      46              0.0000000000
      5737        46  DOPE      C313          -13.5123480769      -28.1128272911        5.1763012814  MEMB      46              0.0000000000
      5738        46  DOPE      H13X          -14.5714313899      -27.8818729940        5.4198659995  MEMB      46              0.0000000000
      5739        46  DOPE      H13Y          -12.9144673034      -27.1803756417        5.0903161143  MEMB      46              0.0000000000
      5740        46  DOPE      C314          -13.3194705603      -28.9754041174        3.8921225001  MEMB      46              0.0000000000
      5741        46  DOPE      H14X          -14.2781675865      -29.2209188243        3.3872033170  MEMB      46              0.0000000000
      5742        46  DOPE      H14Y          -12.7547296598      -29.9070527250        4.1098831494  MEMB      46              0.0000000000
      5743        46  DOPE      C315          -12.4222241475      -28.1474526130        2.8256481231  MEMB      46              0.0000000000
      5744        46  DOPE      H15X          -11.6216122155      -27.6487546933        3.4127097776  MEMB      46              0.0000000000
      5745        46  DOPE      H15Y          -12.9982797538      -27.3065685060        2.3836125833  MEMB      46              0.0000000000
      5746        46  DOPE      C316          -11.8020886505      -29.0233676624        1.7671632051  MEMB      46              0.0000000000
      5747        46  DOPE      H16X          -12.5270277644      -29.1378040674        0.9330821932  MEMB      46              0.0000000000
      5748        46  DOPE      H16Y          -11.6163028961      -30.0507771281        2.1469447616  MEMB      46              0.0000000000
      5749        46  DOPE      C317          -10.4644618521      -28.4855167721        1.1229364167  MEMB      46              0.0000000000
      5750        46  DOPE      H17X          -10.6371620481      -27.4522937111        0.7528756686  MEMB      46              0.0000000000
      5751        46  DOPE      H17Y           -9.6833194882      -28.4860855138        1.9129608444  MEMB      46              0.0000000000
      5752        46  DOPE      C318          -10.0320447434      -29.4095213238        0.0022700025  MEMB      46              0.0000000000
      5753        46  DOPE      H18X           -8.9409789932      -29.2586352924       -0.1430907504  MEMB      46              0.0000000000
      5754        46  DOPE      H18Y          -10.0552037319      -30.4629139192        0.3546173915  MEMB      46              0.0000000000
      5755        46  DOPE      H18Z          -10.5989418314      -29.4095172817       -0.9532139988  MEMB      46              0.0000000000
      5756        47  DOPC      N             -19.9010070585      -20.7540955819       18.0330889020  MEMB      47              0.0000000000
      5757        47  DOPC      C12           -18.9408890086      -21.0498237802       19.1452273952  MEMB      47              0.0000000000
      5758        47  DOPC      H12A          -18.6551973160      -20.1109944354       19.5962037719  MEMB      47              0.0000000000
      5759        47  DOPC      H12B          -18.0822098338      -21.5229631118       18.6922269581  MEMB      47              0.0000000000
      5760        47  DOPC      C13           -21.1630560081      -20.0452048441       18.5862819793  MEMB      47              0.0000000000
      5761        47  DOPC      H13A          -21.7313361751      -20.7763625671       19.1420389931  MEMB      47              0.0000000000
      5762        47  DOPC      H13B          -20.8600991611      -19.2179428348       19.2109856981  MEMB      47              0.0000000000
      5763        47  DOPC      H13C          -21.7052217125      -19.6533564682       17.7383956079  MEMB      47              0.0000000000
      5764        47  DOPC      C14           -20.3120073869      -22.0168506180       17.2474620426  MEMB      47              0.0000000000
      5765        47  DOPC      H14A          -20.7153641465      -22.7606253780       17.9186568237  MEMB      47              0.0000000000
      5766        47  DOPC      H14B          -20.9838311835      -21.7497683500       16.4451405119  MEMB      47              0.0000000000
      5767        47  DOPC      H14C          -19.4536448547      -22.4286986863       16.7375651402  MEMB      47              0.0000000000
      5768        47  DOPC      C15           -19.3134508772      -19.8151838734       16.9938315643  MEMB      47              0.0000000000
      5769        47  DOPC      H15A          -18.5939307413      -20.3270393747       16.3719837965  MEMB      47              0.0000000000
      5770        47  DOPC      H15B          -18.9282559000      -18.9052988009       17.4298752095  MEMB      47              0.0000000000
      5771        47  DOPC      H15C          -20.0941412224      -19.4486413822       16.3437782857  MEMB      47              0.0000000000
      5772        47  DOPC      C11           -19.4784857723      -21.8800777333       20.3354251898  MEMB      47              0.0000000000
      5773        47  DOPC      H11A          -18.6039672082      -21.9058443405       21.0201692041  MEMB      47              0.0000000000
      5774        47  DOPC      H11B          -20.1954214033      -21.2399059057       20.8926544200  MEMB      47              0.0000000000
      5775        47  DOPC      P             -18.7570672300      -24.3458180430       19.7740439564  MEMB      47              0.0000000000
      5776        47  DOPC      O13           -19.4125204166      -25.6193180434       19.4085783026  MEMB      47              0.0000000000
      5777        47  DOPC      O14           -17.8115049143      -24.3512480134       20.9309751143  MEMB      47              0.0000000000
      5778        47  DOPC      O12           -19.8668576258      -23.1761251447       19.9853640090  MEMB      47              0.0000000000
      5779        47  DOPC      O11           -17.9515890001      -23.7390687227       18.5597215491  MEMB      47              0.0000000000
      5780        47  DOPC      C1            -17.4790885177      -24.6421992501       17.6263333214  MEMB      47              0.0000000000
      5781        47  DOPC      HA            -18.3653257796      -24.7206479217       16.9609383229  MEMB      47              0.0000000000
      5782        47  DOPC      HB            -17.1719871375      -25.6259062428       18.0414603751  MEMB      47              0.0000000000
      5783        47  DOPC      C2            -16.2771614252      -24.1422677160       16.7870334987  MEMB      47              0.0000000000
      5784        47  DOPC      HS            -15.4677604795      -24.2674368622       17.5377157693  MEMB      47              0.0000000000
      5785        47  DOPC      O21           -16.4240363692      -22.8238654014       16.3845202971  MEMB      47              0.0000000000
      5786        47  DOPC      C21           -15.4074637939      -22.0454103730       15.9836430433  MEMB      47              0.0000000000
      5787        47  DOPC      O22           -14.2489170446      -22.2998414938       16.0637772864  MEMB      47              0.0000000000
      5788        47  DOPC      C22           -16.0170886815      -20.6143855757       15.7595918919  MEMB      47              0.0000000000
      5789        47  DOPC      H2R           -15.6730478485      -20.0889036734       16.6760119822  MEMB      47              0.0000000000
      5790        47  DOPC      H2S           -17.1178968658      -20.5728693934       15.6153056360  MEMB      47              0.0000000000
      5791        47  DOPC      C3            -15.9820891363      -24.9994716652       15.5557966476  MEMB      47              0.0000000000
      5792        47  DOPC      HX            -15.9866476192      -25.9256959149       16.1693181761  MEMB      47              0.0000000000
      5793        47  DOPC      HY            -14.9547365690      -24.8821847179       15.1494578951  MEMB      47              0.0000000000
      5794        47  DOPC      O31           -17.0440875588      -25.0840852296       14.5705945040  MEMB      47              0.0000000000
      5795        47  DOPC      C31           -16.6525202715      -24.9138366790       13.2906030895  MEMB      47              0.0000000000
      5796        47  DOPC      O32           -15.5519820457      -24.6506253880       12.8818651291  MEMB      47              0.0000000000
      5797        47  DOPC      C32           -17.8537408909      -25.3569352842       12.4201985387  MEMB      47              0.0000000000
      5798        47  DOPC      H2X           -17.5295961999      -25.3613383453       11.3575454842  MEMB      47              0.0000000000
      5799        47  DOPC      H2Y           -18.0756387848      -26.4315148292       12.5944419456  MEMB      47              0.0000000000
      5800        47  DOPC      C23           -15.4142694947      -20.0002401339       14.5067160547  MEMB      47              0.0000000000
      5801        47  DOPC      H3R           -14.3803925900      -20.3569010590       14.3112366656  MEMB      47              0.0000000000
      5802        47  DOPC      H3S           -15.3813882550      -18.8957865142       14.6225711927  MEMB      47              0.0000000000
      5803        47  DOPC      C24           -16.3227364248      -20.4118103824       13.2096077708  MEMB      47              0.0000000000
      5804        47  DOPC      H4R           -17.2912524198      -20.0368661663       13.6042146591  MEMB      47              0.0000000000
      5805        47  DOPC      H4S           -16.3275852430      -21.5103921800       13.0440313528  MEMB      47              0.0000000000
      5806        47  DOPC      C25           -15.7902716223      -19.6530030610       11.9781452093  MEMB      47              0.0000000000
      5807        47  DOPC      H5R           -14.7079054510      -19.8933904793       11.9073025850  MEMB      47              0.0000000000
      5808        47  DOPC      H5S           -15.8795483214      -18.5980014815       12.3147798951  MEMB      47              0.0000000000
      5809        47  DOPC      C26           -16.4402598174      -19.8203972476       10.5812348176  MEMB      47              0.0000000000
      5810        47  DOPC      H6R           -16.0802680931      -19.0738773794        9.8413462395  MEMB      47              0.0000000000
      5811        47  DOPC      H6S           -17.5503058500      -19.7748030276       10.5749284400  MEMB      47              0.0000000000
      5812        47  DOPC      C27           -16.0667584555      -21.2019954811        9.9493228921  MEMB      47              0.0000000000
      5813        47  DOPC      H7R           -15.9649975229      -21.9197290031       10.7912398516  MEMB      47              0.0000000000
      5814        47  DOPC      H7S           -15.0109314575      -21.1317793270        9.6107670460  MEMB      47              0.0000000000
      5815        47  DOPC      C28           -17.0720658047      -21.6604494998        8.8286886852  MEMB      47              0.0000000000
      5816        47  DOPC      H8R           -18.0363082611      -21.5669449350        9.3725766875  MEMB      47              0.0000000000
      5817        47  DOPC      H8S           -16.9519095842      -22.7122866463        8.4917577643  MEMB      47              0.0000000000
      5818        47  DOPC      C29           -17.1873245673      -20.7812433366        7.6455579681  MEMB      47              0.0000000000
      5819        47  DOPC      H9R           -17.0412101177      -19.7326354607        7.9440071976  MEMB      47              0.0000000000
      5820        47  DOPC      C210          -17.3710431109      -21.1183270815        6.3425300013  MEMB      47              0.0000000000
      5821        47  DOPC      H10R          -17.3047686939      -20.2780518437        5.6357447502  MEMB      47              0.0000000000
      5822        47  DOPC      C211          -17.4389802363      -22.4808256073        5.6875253145  MEMB      47              0.0000000000
      5823        47  DOPC      H11R          -18.2684513597      -22.3763155627        4.9558314028  MEMB      47              0.0000000000
      5824        47  DOPC      H11S          -17.5355130778      -23.2468115958        6.4864422747  MEMB      47              0.0000000000
      5825        47  DOPC      C212          -16.2022280472      -22.9457256171        4.8626537932  MEMB      47              0.0000000000
      5826        47  DOPC      H12R          -16.4188620966      -23.9911640689        4.5553284734  MEMB      47              0.0000000000
      5827        47  DOPC      H12S          -15.3841521826      -23.1306488158        5.5912667168  MEMB      47              0.0000000000
      5828        47  DOPC      C213          -15.7619455878      -22.0729131953        3.8020087402  MEMB      47              0.0000000000
      5829        47  DOPC      H13R          -14.7153045748      -22.3844732054        3.5975730412  MEMB      47              0.0000000000
      5830        47  DOPC      H13S          -15.6345740624      -21.0459114998        4.2061929338  MEMB      47              0.0000000000
      5831        47  DOPC      C214          -16.6152794789      -22.1624704838        2.5027134750  MEMB      47              0.0000000000
      5832        47  DOPC      H14R          -16.8904603114      -21.1609275902        2.1083682364  MEMB      47              0.0000000000
      5833        47  DOPC      H14S          -17.6386480103      -22.4894416140        2.7857822949  MEMB      47              0.0000000000
      5834        47  DOPC      C215          -15.8528744674      -22.8870306646        1.3276394469  MEMB      47              0.0000000000
      5835        47  DOPC      H15R          -14.8922276835      -22.3340314547        1.2523345584  MEMB      47              0.0000000000
      5836        47  DOPC      H15S          -16.4443976993      -22.8244859343        0.3892843133  MEMB      47              0.0000000000
      5837        47  DOPC      C216          -15.4275136439      -24.3745955907        1.5084115706  MEMB      47              0.0000000000
      5838        47  DOPC      H16R          -15.2200846349      -24.6371904135        2.5678162683  MEMB      47              0.0000000000
      5839        47  DOPC      H16S          -14.4888130784      -24.5968051506        0.9572439182  MEMB      47              0.0000000000
      5840        47  DOPC      C217          -16.4083252631      -25.4879324410        0.9931406155  MEMB      47              0.0000000000
      5841        47  DOPC      H17R          -17.4478212046      -25.0966592067        0.9671748622  MEMB      47              0.0000000000
      5842        47  DOPC      H17S          -16.4198653444      -26.4049058787        1.6203143920  MEMB      47              0.0000000000
      5843        47  DOPC      C218          -16.1023786983      -25.7597521770       -0.4829427721  MEMB      47              0.0000000000
      5844        47  DOPC      H18R          -16.2325167017      -24.7926574832       -1.0140873329  MEMB      47              0.0000000000
      5845        47  DOPC      H18S          -16.7337405933      -26.5422173348       -0.9556493841  MEMB      47              0.0000000000
      5846        47  DOPC      H18T          -15.0376181180      -26.0502873743       -0.6102048747  MEMB      47              0.0000000000
      5847        47  DOPC      C33           -19.0940011062      -24.5140646039       12.5494153102  MEMB      47              0.0000000000
      5848        47  DOPC      H3X           -19.4627866781      -24.6018116097       13.5937422366  MEMB      47              0.0000000000
      5849        47  DOPC      H3Y           -19.9074925707      -24.8859278103       11.8904233832  MEMB      47              0.0000000000
      5850        47  DOPC      C34           -19.0217642800      -22.9499953205       12.4959542808  MEMB      47              0.0000000000
      5851        47  DOPC      H4X           -18.2471951701      -22.7680322389       11.7205492807  MEMB      47              0.0000000000
      5852        47  DOPC      H4Y           -18.5694015144      -22.5365210103       13.4226301838  MEMB      47              0.0000000000
      5853        47  DOPC      C35           -20.2367822217      -22.0651130114       12.1670302461  MEMB      47              0.0000000000
      5854        47  DOPC      H5X           -19.9130567058      -21.0040849935       12.2282044886  MEMB      47              0.0000000000
      5855        47  DOPC      H5Y           -21.1095710007      -22.3279438904       12.8022314151  MEMB      47              0.0000000000
      5856        47  DOPC      C36           -20.7280352113      -22.3444321308       10.7400126128  MEMB      47              0.0000000000
      5857        47  DOPC      H6X           -19.9441988491      -22.3795642359        9.9534459693  MEMB      47              0.0000000000
      5858        47  DOPC      H6Y           -21.1633944134      -23.3607787296       10.6312795251  MEMB      47              0.0000000000
      5859        47  DOPC      C37           -21.7666429186      -21.2947539895       10.3135687423  MEMB      47              0.0000000000
      5860        47  DOPC      H7X           -22.7276660657      -21.3835275782       10.8639090902  MEMB      47              0.0000000000
      5861        47  DOPC      H7Y           -21.4170566284      -20.2579761633       10.5064479452  MEMB      47              0.0000000000
      5862        47  DOPC      C38           -21.9957168531      -21.2920022651        8.7681074616  MEMB      47              0.0000000000
      5863        47  DOPC      H8X           -20.9851499161      -21.3651243892        8.3123346403  MEMB      47              0.0000000000
      5864        47  DOPC      H8Y           -22.5445271593      -20.3946352024        8.4105317374  MEMB      47              0.0000000000
      5865        47  DOPC      C39           -22.8051023591      -22.4631449734        8.2808030356  MEMB      47              0.0000000000
      5866        47  DOPC      H9X           -23.8179354696      -22.4039265402        8.7058466219  MEMB      47              0.0000000000
      5867        47  DOPC      C310          -22.3744515333      -23.5206680477        7.5905138517  MEMB      47              0.0000000000
      5868        47  DOPC      H10X          -23.1331602668      -24.2719990205        7.3261978713  MEMB      47              0.0000000000
      5869        47  DOPC      C311          -20.9691297036      -23.7482116006        7.2001357413  MEMB      47              0.0000000000
      5870        47  DOPC      H11X          -20.3916427006      -24.2845360471        7.9831976814  MEMB      47              0.0000000000
      5871        47  DOPC      H11Y          -20.5026013098      -22.7582071651        7.0089194765  MEMB      47              0.0000000000
      5872        47  DOPC      C312          -20.7336822706      -24.5301978907        5.8672226451  MEMB      47              0.0000000000
      5873        47  DOPC      H12X          -19.6399233692      -24.5439576279        5.6727401845  MEMB      47              0.0000000000
      5874        47  DOPC      H12Y          -21.3678128448      -23.9939020368        5.1292615367  MEMB      47              0.0000000000
      5875        47  DOPC      C313          -21.3027089953      -25.9823629129        5.9810390371  MEMB      47              0.0000000000
      5876        47  DOPC      H13X          -20.6277625262      -26.5144570208        6.6850588564  MEMB      47              0.0000000000
      5877        47  DOPC      H13Y          -22.3556454437      -25.9362303977        6.3324900991  MEMB      47              0.0000000000
      5878        47  DOPC      C314          -21.3391813813      -26.5803144955        4.5637866392  MEMB      47              0.0000000000
      5879        47  DOPC      H14X          -21.6218380687      -27.6460442691        4.7003391880  MEMB      47              0.0000000000
      5880        47  DOPC      H14Y          -22.1689190412      -26.1817811230        3.9416716800  MEMB      47              0.0000000000
      5881        47  DOPC      C315          -20.0049655805      -26.5004323398        3.7709420561  MEMB      47              0.0000000000
      5882        47  DOPC      H15X          -19.1380353259      -26.5115994354        4.4656566395  MEMB      47              0.0000000000
      5883        47  DOPC      H15Y          -20.0027171804      -25.4907719458        3.3073676651  MEMB      47              0.0000000000
      5884        47  DOPC      C316          -19.8456678090      -27.6185269418        2.6766063707  MEMB      47              0.0000000000
      5885        47  DOPC      H16X          -18.8853728206      -27.5901481147        2.1186211950  MEMB      47              0.0000000000
      5886        47  DOPC      H16Y          -19.7227455215      -28.5611040745        3.2517240944  MEMB      47              0.0000000000
      5887        47  DOPC      C317          -20.9292079551      -27.7623311035        1.6232678290  MEMB      47              0.0000000000
      5888        47  DOPC      H17X          -20.5239447927      -28.5599728390        0.9645932701  MEMB      47              0.0000000000
      5889        47  DOPC      H17Y          -21.7687591619      -28.1261666231        2.2534258218  MEMB      47              0.0000000000
      5890        47  DOPC      C318          -21.3896229978      -26.5267967124        0.9724823065  MEMB      47              0.0000000000
      5891        47  DOPC      H18X          -22.2793970625      -26.8355351905        0.3831589146  MEMB      47              0.0000000000
      5892        47  DOPC      H18Y          -21.5336517096      -25.7238182421        1.7266724285  MEMB      47              0.0000000000
      5893        47  DOPC      H18Z          -20.6467317339      -26.0125959060        0.3259297823  MEMB      47              0.0000000000
      5894        48  CHL1      C3            -25.2956781766       16.1822435776       17.3251400000  MEMB      48              0.0000000000
      5895        48  CHL1      H3            -24.7558667733       17.1240983620       17.0888800000  MEMB      48              0.0000000000
      5896        48  CHL1      O3            -25.4545544234       16.1165500224       18.6748600000  MEMB      48              0.0000000000
      5897        48  CHL1      H3'           -26.1540670288       15.4672935370       18.7784700000  MEMB      48              0.0000000000
      5898        48  CHL1      C4            -26.7008893192       16.3137552597       16.6886100000  MEMB      48              0.0000000000
      5899        48  CHL1      H4A           -27.2890690988       15.3954508950       16.9009300000  MEMB      48              0.0000000000
      5900        48  CHL1      H4B           -27.2273435991       17.2140742813       17.0714700000  MEMB      48              0.0000000000
      5901        48  CHL1      C5            -26.6205541943       16.4818571830       15.2183700000  MEMB      48              0.0000000000
      5902        48  CHL1      C6            -27.1187510867       17.5884548234       14.6356600000  MEMB      48              0.0000000000
      5903        48  CHL1      H6            -27.6500332759       18.2875924358       15.2981800000  MEMB      48              0.0000000000
      5904        48  CHL1      C7            -27.1135137516       17.9408469202       13.1802300000  MEMB      48              0.0000000000
      5905        48  CHL1      H7A           -28.1121297326       18.2888439667       12.8396600000  MEMB      48              0.0000000000
      5906        48  CHL1      H7B           -26.3429926176       18.7354480311       13.0841400000  MEMB      48              0.0000000000
      5907        48  CHL1      C8            -26.6493520364       16.7460063406       12.3429500000  MEMB      48              0.0000000000
      5908        48  CHL1      H8            -27.4511122399       15.9780818850       12.3005500000  MEMB      48              0.0000000000
      5909        48  CHL1      C14           -26.1724387141       17.2293957357       10.9672200000  MEMB      48              0.0000000000
      5910        48  CHL1      H14           -25.3877529025       17.9435267379       11.2968000000  MEMB      48              0.0000000000
      5911        48  CHL1      C15           -27.1152875213       18.0216878377       10.1104900000  MEMB      48              0.0000000000
      5912        48  CHL1      H15A          -28.0816107488       17.4752114871       10.1541700000  MEMB      48              0.0000000000
      5913        48  CHL1      H15B          -27.0103064615       19.0300458531       10.5649300000  MEMB      48              0.0000000000
      5914        48  CHL1      C16           -26.5318857483       17.8289855405        8.6379000000  MEMB      48              0.0000000000
      5915        48  CHL1      H16A          -27.3212052366       17.3091858895        8.0538700000  MEMB      48              0.0000000000
      5916        48  CHL1      H16B          -26.1835826473       18.8126086321        8.2564400000  MEMB      48              0.0000000000
      5917        48  CHL1      C17           -25.3445386672       16.8361077664        8.7012000000  MEMB      48              0.0000000000
      5918        48  CHL1      H17           -24.5017561871       17.5456359301        8.8447800000  MEMB      48              0.0000000000
      5919        48  CHL1      C13           -25.5197695620       16.1761157264       10.0734000000  MEMB      48              0.0000000000
      5920        48  CHL1      C18           -26.6163492450       15.1146875068        9.7726200000  MEMB      48              0.0000000000
      5921        48  CHL1      H18A          -26.2023642835       14.3782086894        9.0511400000  MEMB      48              0.0000000000
      5922        48  CHL1      H18B          -26.9831416268       14.4454525872       10.5800300000  MEMB      48              0.0000000000
      5923        48  CHL1      H18C          -27.4735058848       15.6177227602        9.2760700000  MEMB      48              0.0000000000
      5924        48  CHL1      C12           -24.2495808415       15.5670311582       10.7985100000  MEMB      48              0.0000000000
      5925        48  CHL1      H12A          -23.7545577446       14.9358956577       10.0297800000  MEMB      48              0.0000000000
      5926        48  CHL1      H12B          -23.5062177424       16.3766969411       10.9603200000  MEMB      48              0.0000000000
      5927        48  CHL1      C11           -24.6353388484       14.9598169381       12.1048200000  MEMB      48              0.0000000000
      5928        48  CHL1      H11A          -25.2003115201       14.0135894461       11.9641600000  MEMB      48              0.0000000000
      5929        48  CHL1      H11B          -23.6906087296       14.9021255217       12.6866000000  MEMB      48              0.0000000000
      5930        48  CHL1      C9            -25.4502213716       15.9683667603       13.1133300000  MEMB      48              0.0000000000
      5931        48  CHL1      H9            -24.6152664615       16.6724791924       13.3167900000  MEMB      48              0.0000000000
      5932        48  CHL1      C10           -25.7965215077       15.4048647059       14.5276300000  MEMB      48              0.0000000000
      5933        48  CHL1      C19           -26.6453318251       14.0886522638       14.3390400000  MEMB      48              0.0000000000
      5934        48  CHL1      H19A          -27.0231874463       13.8802381701       15.3628100000  MEMB      48              0.0000000000
      5935        48  CHL1      H19B          -27.5022643593       14.3781354433       13.6939200000  MEMB      48              0.0000000000
      5936        48  CHL1      H19C          -26.1206743645       13.2986753676       13.7602500000  MEMB      48              0.0000000000
      5937        48  CHL1      C1            -24.4619187947       15.0165614776       15.2433400000  MEMB      48              0.0000000000
      5938        48  CHL1      H1A           -23.9748545974       14.1104426723       14.8237700000  MEMB      48              0.0000000000
      5939        48  CHL1      H1B           -23.7871391822       15.8707919401       15.0213700000  MEMB      48              0.0000000000
      5940        48  CHL1      C2            -24.6238438967       14.8982340039       16.7362900000  MEMB      48              0.0000000000
      5941        48  CHL1      H2A           -23.6326702482       14.9065383294       17.2381100000  MEMB      48              0.0000000000
      5942        48  CHL1      H2B           -25.1444652063       13.9649804580       17.0401200000  MEMB      48              0.0000000000
      5943        48  CHL1      C20           -25.0276407428       16.0477610858        7.4240700000  MEMB      48              0.0000000000
      5944        48  CHL1      H20           -25.9188261896       15.4494533557        7.1374700000  MEMB      48              0.0000000000
      5945        48  CHL1      C21           -23.7669118060       15.0474740430        7.5244800000  MEMB      48              0.0000000000
      5946        48  CHL1      H21A          -23.9073594547       14.0274287065        7.9417500000  MEMB      48              0.0000000000
      5947        48  CHL1      H21B          -22.9064173925       15.4531470603        8.0983200000  MEMB      48              0.0000000000
      5948        48  CHL1      H21C          -23.4908176356       14.8617080140        6.4644900000  MEMB      48              0.0000000000
      5949        48  CHL1      C22           -24.8654877371       17.0228013295        6.2046800000  MEMB      48              0.0000000000
      5950        48  CHL1      H22A          -25.5586905140       17.8883074789        6.2730900000  MEMB      48              0.0000000000
      5951        48  CHL1      H22B          -23.8045806946       17.3298678565        6.0842800000  MEMB      48              0.0000000000
      5952        48  CHL1      C23           -25.3878877939       16.3560903103        4.9466300000  MEMB      48              0.0000000000
      5953        48  CHL1      H23A          -24.8850702881       15.3730577359        4.8235600000  MEMB      48              0.0000000000
      5954        48  CHL1      H23B          -26.4818771430       16.2342853794        5.0971800000  MEMB      48              0.0000000000
      5955        48  CHL1      C24           -25.2044400439       17.2053459767        3.6843200000  MEMB      48              0.0000000000
      5956        48  CHL1      H24A          -25.6444988422       18.1990911620        3.9148200000  MEMB      48              0.0000000000
      5957        48  CHL1      H24B          -24.1138092321       17.2894150795        3.4899500000  MEMB      48              0.0000000000
      5958        48  CHL1      C25           -25.8536170621       16.5008337001        2.4052800000  MEMB      48              0.0000000000
      5959        48  CHL1      H25           -26.9588247705       16.4661172243        2.5132000000  MEMB      48              0.0000000000
      5960        48  CHL1      C26           -25.4142302816       17.2197375815        1.1423900000  MEMB      48              0.0000000000
      5961        48  CHL1      H26A          -25.7650633289       18.2719553087        1.0785200000  MEMB      48              0.0000000000
      5962        48  CHL1      H26B          -24.3167566862       17.2595854991        0.9741600000  MEMB      48              0.0000000000
      5963        48  CHL1      H26C          -25.9105668852       16.6049602104        0.3613500000  MEMB      48              0.0000000000
      5964        48  CHL1      C27           -25.3729142294       15.0476263155        2.1792800000  MEMB      48              0.0000000000
      5965        48  CHL1      H27A          -24.3351130386       15.0971279285        1.7857800000  MEMB      48              0.0000000000
      5966        48  CHL1      H27B          -25.2012643943       14.4508269406        3.1005200000  MEMB      48              0.0000000000
      5967        48  CHL1      H27C          -25.9871748084       14.5557803278        1.3950100000  MEMB      48              0.0000000000
      5968        49  23SM      N               7.6075833938       27.2643986991       27.3705795743  MEMB      49              0.0000000000
      5969        49  23SM      C15             8.8492546110       27.5102663760       28.1163009429  MEMB      49              0.0000000000
      5970        49  23SM      H15A            9.3945864683       28.3754710721       27.7692650128  MEMB      49              0.0000000000
      5971        49  23SM      H15B            9.5048792558       26.6889223024       27.8674026806  MEMB      49              0.0000000000
      5972        49  23SM      H15C            8.5962418974       27.4062779043       29.1610836429  MEMB      49              0.0000000000
      5973        49  23SM      C14             7.0537094930       25.8283827887       27.6714306124  MEMB      49              0.0000000000
      5974        49  23SM      H14A            7.5106787506       25.1258921175       26.9901921269  MEMB      49              0.0000000000
      5975        49  23SM      H14B            5.9842327988       25.9179194322       27.5505895016  MEMB      49              0.0000000000
      5976        49  23SM      H14C            7.1626728026       25.5029987912       28.6954679363  MEMB      49              0.0000000000
      5977        49  23SM      C13             6.6173502070       28.2970474875       27.7226867311  MEMB      49              0.0000000000
      5978        49  23SM      H13A            6.8921610804       29.3347273780       27.6039468094  MEMB      49              0.0000000000
      5979        49  23SM      H13B            6.2523216480       28.2655788065       28.7386415000  MEMB      49              0.0000000000
      5980        49  23SM      H13C            5.7494261199       28.1300082235       27.1020370924  MEMB      49              0.0000000000
      5981        49  23SM      C12             7.7815296583       27.2998608646       25.8441181004  MEMB      49              0.0000000000
      5982        49  23SM      H12A            6.8350598857       27.0374516081       25.3949673650  MEMB      49              0.0000000000
      5983        49  23SM      H12B            8.5919644358       26.6651706354       25.5173707656  MEMB      49              0.0000000000
      5984        49  23SM      C11             8.0478553855       28.7234742589       25.1791182654  MEMB      49              0.0000000000
      5985        49  23SM      H11A            7.1811751295       29.4118981658       25.2753418394  MEMB      49              0.0000000000
      5986        49  23SM      H11B            8.1258570011       28.5428085210       24.0856848969  MEMB      49              0.0000000000
      5987        49  23SM      P               9.8997033211       30.5941626812       24.8137205921  MEMB      49              0.0000000000
      5988        49  23SM      O13             9.0657493430       31.7164740380       25.2113854776  MEMB      49              0.0000000000
      5989        49  23SM      O14            11.3121969912       30.6303795700       25.2033908711  MEMB      49              0.0000000000
      5990        49  23SM      O11             9.6284617090       30.3884215222       23.2887273024  MEMB      49              0.0000000000
      5991        49  23SM      O12             9.2949245264       29.3150703124       25.5785415290  MEMB      49              0.0000000000
      5992        49  23SM      C1S            10.3802820909       29.5068844635       22.4538413820  MEMB      49              0.0000000000
      5993        49  23SM      H1S            10.2396086776       28.5147862508       22.9337092662  MEMB      49              0.0000000000
      5994        49  23SM      H1T            11.4615056435       29.7598139491       22.4177419747  MEMB      49              0.0000000000
      5995        49  23SM      NF              9.8563279868       28.0387530884       20.5129524986  MEMB      49              0.0000000000
      5996        49  23SM      HNF            10.5097535448       27.8075048797       19.7963155104  MEMB      49              0.0000000000
      5997        49  23SM      C2S             9.8992767554       29.4047763487       21.0269206566  MEMB      49              0.0000000000
      5998        49  23SM      H2S             8.8169684578       29.6485614067       21.0860704157  MEMB      49              0.0000000000
      5999        49  23SM      C3S            10.7835706334       30.2578004873       20.0910910711  MEMB      49              0.0000000000
      6000        49  23SM      H3S            11.8415145204       29.9713026680       20.2727354872  MEMB      49              0.0000000000
      6001        49  23SM      O3             10.8502861639       31.6287539573       20.4872138148  MEMB      49              0.0000000000
      6002        49  23SM      HO3            10.6832232558       31.7158476987       21.4285452796  MEMB      49              0.0000000000
      6003        49  23SM      C4S            10.2685436611       29.9996474295       18.6772770027  MEMB      49              0.0000000000
      6004        49  23SM      H4S             9.2007308258       30.1821537682       18.4863136137  MEMB      49              0.0000000000
      6005        49  23SM      C5S            11.0453706818       29.5655838866       17.6710322764  MEMB      49              0.0000000000
      6006        49  23SM      H5S            12.1146924299       29.3310499448       17.7784786948  MEMB      49              0.0000000000
      6007        49  23SM      C6S            10.4664395972       29.3900073800       16.3182573549  MEMB      49              0.0000000000
      6008        49  23SM      H6S             9.3576968867       29.4561802564       16.3433900640  MEMB      49              0.0000000000
      6009        49  23SM      H6T            10.6928602715       28.4386631894       15.7910005917  MEMB      49              0.0000000000
      6010        49  23SM      C7S            11.0130773280       30.5051756979       15.4247873080  MEMB      49              0.0000000000
      6011        49  23SM      H7S            12.1044081214       30.3898493002       15.2515300291  MEMB      49              0.0000000000
      6012        49  23SM      H7T            10.7263401211       31.4997554685       15.8284122639  MEMB      49              0.0000000000
      6013        49  23SM      C8S            10.4310057038       30.4035321878       13.9960769697  MEMB      49              0.0000000000
      6014        49  23SM      H8S             9.3630329011       30.7097034166       13.9922933533  MEMB      49              0.0000000000
      6015        49  23SM      H8T            10.5893912275       29.3664147760       13.6305336017  MEMB      49              0.0000000000
      6016        49  23SM      C9S            11.0826105577       31.4680566249       13.0567539343  MEMB      49              0.0000000000
      6017        49  23SM      H9S            12.1874676568       31.3615352341       13.1043420656  MEMB      49              0.0000000000
      6018        49  23SM      H9T            10.7568156039       32.4514752991       13.4580842640  MEMB      49              0.0000000000
      6019        49  23SM      C10S           10.4235191265       31.2800193901       11.6296110699  MEMB      49              0.0000000000
      6020        49  23SM      H10S            9.3344115272       31.1311489951       11.7908666213  MEMB      49              0.0000000000
      6021        49  23SM      H10T           10.9787739606       30.4193603763       11.1991707982  MEMB      49              0.0000000000
      6022        49  23SM      C11S           10.6388859983       32.5795812738       10.8405224340  MEMB      49              0.0000000000
      6023        49  23SM      H11S           11.6900646729       32.9166726497       10.9658771665  MEMB      49              0.0000000000
      6024        49  23SM      H11T           10.0431871388       33.4039916325       11.2875251429  MEMB      49              0.0000000000
      6025        49  23SM      C12S           10.2851947481       32.4707158900        9.3623724310  MEMB      49              0.0000000000
      6026        49  23SM      H12S           10.4198414437       33.4723748272        8.9009944748  MEMB      49              0.0000000000
      6027        49  23SM      H12T            9.2347374053       32.1228685317        9.2630621592  MEMB      49              0.0000000000
      6028        49  23SM      C13S           11.1651967934       31.4408068346        8.5824755489  MEMB      49              0.0000000000
      6029        49  23SM      H13S           10.7514719215       30.4136060202        8.6719803402  MEMB      49              0.0000000000
      6030        49  23SM      H13T           12.1630296761       31.4714523273        9.0700317605  MEMB      49              0.0000000000
      6031        49  23SM      C14S           11.3560373474       31.8637129426        7.1009566379  MEMB      49              0.0000000000
      6032        49  23SM      H14S           11.7653383377       32.8701717938        6.8689331807  MEMB      49              0.0000000000
      6033        49  23SM      H14T           10.4111746877       31.6722318410        6.5487875645  MEMB      49              0.0000000000
      6034        49  23SM      C15S           12.4530876767       31.0089461796        6.4795257797  MEMB      49              0.0000000000
      6035        49  23SM      H15S           12.2861990781       29.9182898168        6.6096715067  MEMB      49              0.0000000000
      6036        49  23SM      H15T           13.4098506549       31.1940752016        7.0130538774  MEMB      49              0.0000000000
      6037        49  23SM      C16S           12.6470820939       31.2562548889        4.9866010873  MEMB      49              0.0000000000
      6038        49  23SM      H16S           13.6997422257       31.0047033471        4.7357023628  MEMB      49              0.0000000000
      6039        49  23SM      H16T           12.3896514163       32.2775194723        4.6329502248  MEMB      49              0.0000000000
      6040        49  23SM      C17S           11.8442808668       30.2204275608        4.0592311423  MEMB      49              0.0000000000
      6041        49  23SM      H17S           10.7581173017       30.3004015174        4.2787183154  MEMB      49              0.0000000000
      6042        49  23SM      H17T           12.1778635976       29.1822900326        4.2721026133  MEMB      49              0.0000000000
      6043        49  23SM      C18S           11.8341395990       30.4044315009        2.5229967017  MEMB      49              0.0000000000
      6044        49  23SM      H18S           11.8231727505       31.4957606935        2.3151466396  MEMB      49              0.0000000000
      6045        49  23SM      H18T           10.9493984043       30.0910962778        1.9285430119  MEMB      49              0.0000000000
      6046        49  23SM      H18U           12.7502564294       29.9575503480        2.0810133907  MEMB      49              0.0000000000
      6047        49  23SM      C1F             8.9886140175       27.0705724965       20.8347334282  MEMB      49              0.0000000000
      6048        49  23SM      OF              8.0537157894       27.1925152097       21.5819639502  MEMB      49              0.0000000000
      6049        49  23SM      C2F             9.2327498571       25.7797145108       20.0820952794  MEMB      49              0.0000000000
      6050        49  23SM      H2F             9.7024308699       25.1520178155       20.8693168208  MEMB      49              0.0000000000
      6051        49  23SM      H2G             9.9092382499       25.9375330766       19.2150440781  MEMB      49              0.0000000000
      6052        49  23SM      C3F             7.8789651024       25.2315055204       19.6737490367  MEMB      49              0.0000000000
      6053        49  23SM      H3F             7.2626052531       26.0412074444       19.2278743467  MEMB      49              0.0000000000
      6054        49  23SM      H3G             7.3815404237       24.7961945463       20.5667183155  MEMB      49              0.0000000000
      6055        49  23SM      C4F             7.9178852892       24.1106696039       18.5343814646  MEMB      49              0.0000000000
      6056        49  23SM      H4F             6.8729476676       23.8667772752       18.2463825105  MEMB      49              0.0000000000
      6057        49  23SM      H4G             8.2434120960       23.2967063860       19.2168893787  MEMB      49              0.0000000000
      6058        49  23SM      C5F             8.8025531690       24.3538717932       17.2713714409  MEMB      49              0.0000000000
      6059        49  23SM      H5F             8.6803418356       23.5773516467       16.4862582025  MEMB      49              0.0000000000
      6060        49  23SM      H5G             9.8683265619       24.3653237734       17.5849273520  MEMB      49              0.0000000000
      6061        49  23SM      C6F             8.6033653008       25.6085602177       16.4723631730  MEMB      49              0.0000000000
      6062        49  23SM      H6F             9.3857199227       25.5888209261       15.6837865816  MEMB      49              0.0000000000
      6063        49  23SM      H6G             8.8592629732       26.4785706601       17.1141720632  MEMB      49              0.0000000000
      6064        49  23SM      C7F             7.1975342610       25.7795475477       15.8735554900  MEMB      49              0.0000000000
      6065        49  23SM      H7F             6.3787580174       25.5788110837       16.5971790785  MEMB      49              0.0000000000
      6066        49  23SM      H7G             7.1355546084       24.9964240952       15.0879372786  MEMB      49              0.0000000000
      6067        49  23SM      C8F             6.8163400138       27.1067639303       15.0426905452  MEMB      49              0.0000000000
      6068        49  23SM      H8F             7.6632634028       27.2181591070       14.3323152531  MEMB      49              0.0000000000
      6069        49  23SM      H8G             6.8388111026       27.9602087342       15.7536391636  MEMB      49              0.0000000000
      6070        49  23SM      C9F             5.5663983226       27.1583359636       14.2375386817  MEMB      49              0.0000000000
      6071        49  23SM      H9F             5.3797406070       28.2124667867       13.9404060814  MEMB      49              0.0000000000
      6072        49  23SM      H9G             4.6382073556       26.9240634887       14.8013633992  MEMB      49              0.0000000000
      6073        49  23SM      C10F            5.4485150602       26.2084891364       12.9398239138  MEMB      49              0.0000000000
      6074        49  23SM      H10F            4.4517644330       26.4173478267       12.4957662781  MEMB      49              0.0000000000
      6075        49  23SM      H10G            5.5181881579       25.1529263437       13.2793136977  MEMB      49              0.0000000000
      6076        49  23SM      C11F            6.6146991859       26.4551215011       11.9398796499  MEMB      49              0.0000000000
      6077        49  23SM      H11F            6.5631126822       25.7383501987       11.0925913010  MEMB      49              0.0000000000
      6078        49  23SM      H11G            7.6103205806       26.2832230886       12.4019515211  MEMB      49              0.0000000000
      6079        49  23SM      C12F            6.5129514719       27.9053895041       11.3237358188  MEMB      49              0.0000000000
      6080        49  23SM      H12F            6.5417000597       28.6106108606       12.1817323022  MEMB      49              0.0000000000
      6081        49  23SM      H12G            5.5785985100       27.9400249940       10.7236475556  MEMB      49              0.0000000000
      6082        49  23SM      C13F            7.5702127402       28.3073309205       10.3202545333  MEMB      49              0.0000000000
      6083        49  23SM      H13F            8.5165497257       28.5524104512       10.8481780739  MEMB      49              0.0000000000
      6084        49  23SM      H13G            7.3457693220       29.2177515677        9.7243684987  MEMB      49              0.0000000000
      6085        49  23SM      C14F            8.1072713824       27.2188391854        9.2709741556  MEMB      49              0.0000000000
      6086        49  23SM      H14F            8.3356567568       26.3460769783        9.9193935271  MEMB      49              0.0000000000
      6087        49  23SM      H14G            9.0871789592       27.4945433153        8.8259022357  MEMB      49              0.0000000000
      6088        49  23SM      C15F            7.1774624119       26.7225212881        8.1601938581  MEMB      49              0.0000000000
      6089        49  23SM      H15F            6.1822705742       26.4285013944        8.5570147521  MEMB      49              0.0000000000
      6090        49  23SM      H15G            7.6914259606       25.8336113075        7.7359270519  MEMB      49              0.0000000000
      6091        49  23SM      C16F            6.9805552805       27.6395743218        6.9516951733  MEMB      49              0.0000000000
      6092        49  23SM      H16F            6.3393904471       28.5159559042        7.1866099205  MEMB      49              0.0000000000
      6093        49  23SM      H16G            6.4924987453       27.2424524914        6.0360440901  MEMB      49              0.0000000000
      6094        49  23SM      C17F            8.2537824351       28.3972508845        6.4331746585  MEMB      49              0.0000000000
      6095        49  23SM      H17F            8.9179784332       28.8961266458        7.1709330108  MEMB      49              0.0000000000
      6096        49  23SM      H17G            7.7966321464       29.2336524050        5.8624145493  MEMB      49              0.0000000000
      6097        49  23SM      C18F            9.0776073644       27.5708748788        5.3589182216  MEMB      49              0.0000000000
      6098        49  23SM      H18F            9.3158143239       28.2987309520        4.5540549824  MEMB      49              0.0000000000
      6099        49  23SM      H18G            8.2897852974       26.9384060936        4.8967054500  MEMB      49              0.0000000000
      6100        49  23SM      C19F           10.2417782134       26.8344518077        5.9078748873  MEMB      49              0.0000000000
      6101        49  23SM      H19F            9.9598289337       25.8522228812        6.3438241939  MEMB      49              0.0000000000
      6102        49  23SM      H19G           10.7940786125       27.3472357899        6.7241689934  MEMB      49              0.0000000000
      6103        49  23SM      C20F           11.2552407183       26.5207488322        4.7913434300  MEMB      49              0.0000000000
      6104        49  23SM      H20F           12.2875962239       26.7222311257        5.1490685072  MEMB      49              0.0000000000
      6105        49  23SM      H20G           11.1883763274       27.2465048740        3.9528157820  MEMB      49              0.0000000000
      6106        49  23SM      C21F           11.0099699082       25.2372956928        4.1705589832  MEMB      49              0.0000000000
      6107        49  23SM      H21F            9.9556498856       25.1745044207        3.8259029948  MEMB      49              0.0000000000
      6108        49  23SM      H21G           11.1136987634       24.4260605084        4.9225290355  MEMB      49              0.0000000000
      6109        49  23SM      C22F           11.8508197499       24.8423136140        2.8767256472  MEMB      49              0.0000000000
      6110        49  23SM      H22F           12.9466397007       24.8183905222        3.0581840630  MEMB      49              0.0000000000
      6111        49  23SM      H22G           11.5493317521       25.5434844864        2.0693936155  MEMB      49              0.0000000000
      6112        49  23SM      C23F           11.4037804294       23.4542199328        2.3408723368  MEMB      49              0.0000000000
      6113        49  23SM      H23F           11.8358782437       22.6266679465        2.9431759828  MEMB      49              0.0000000000
      6114        49  23SM      H23G           11.8472218530       23.3446673039        1.3281146950  MEMB      49              0.0000000000
      6115        49  23SM      H23H           10.2927852719       23.4522591670        2.3434430097  MEMB      49              0.0000000000
      6116        50  23SM      N              28.8352724504      -11.5457614621       27.0557438337  MEMB      50              0.0000000000
      6117        50  23SM      C15            29.1279770767      -10.5632712870       28.1138834063  MEMB      50              0.0000000000
      6118        50  23SM      H15A           28.3038272998      -10.4942552593       28.8084436067  MEMB      50              0.0000000000
      6119        50  23SM      H15B           29.4392419763       -9.5911585883       27.7610220592  MEMB      50              0.0000000000
      6120        50  23SM      H15C           30.0125113903      -10.8890919720       28.6409886383  MEMB      50              0.0000000000
      6121        50  23SM      C14            29.9900966399      -11.7150194991       26.1033505430  MEMB      50              0.0000000000
      6122        50  23SM      H14A           30.9429130898      -11.7896502441       26.6063128361  MEMB      50              0.0000000000
      6123        50  23SM      H14B           30.1046261754      -10.8420556840       25.4778771380  MEMB      50              0.0000000000
      6124        50  23SM      H14C           29.8254757683      -12.6262751401       25.5475510106  MEMB      50              0.0000000000
      6125        50  23SM      C13            28.6403557465      -12.9340296700       27.6022932920  MEMB      50              0.0000000000
      6126        50  23SM      H13A           28.6462524346      -13.6397252604       26.7847610941  MEMB      50              0.0000000000
      6127        50  23SM      H13B           27.6908568153      -13.0689677382       28.0989254789  MEMB      50              0.0000000000
      6128        50  23SM      H13C           29.3917195928      -13.1847652633       28.3364487060  MEMB      50              0.0000000000
      6129        50  23SM      C12            27.6518825477      -11.0804057099       26.2181640047  MEMB      50              0.0000000000
      6130        50  23SM      H12A           26.7467266292      -11.1983124669       26.7953907207  MEMB      50              0.0000000000
      6131        50  23SM      H12B           27.5867616509      -11.7032866132       25.3382897902  MEMB      50              0.0000000000
      6132        50  23SM      C11            27.5486139618       -9.5946967873       25.6758713657  MEMB      50              0.0000000000
      6133        50  23SM      H11A           27.2503623864       -9.0092670095       26.5717725474  MEMB      50              0.0000000000
      6134        50  23SM      H11B           26.8437416417       -9.5903867118       24.8171179108  MEMB      50              0.0000000000
      6135        50  23SM      P              28.7640787925       -7.5043182933       25.0813136759  MEMB      50              0.0000000000
      6136        50  23SM      O13            27.6488205696       -7.0020797396       24.2648077222  MEMB      50              0.0000000000
      6137        50  23SM      O14            28.9344465658       -7.0384150485       26.4950354247  MEMB      50              0.0000000000
      6138        50  23SM      O11            30.0750727048       -7.1892151228       24.3075128809  MEMB      50              0.0000000000
      6139        50  23SM      O12            28.7664723468       -9.1139913238       25.0820238494  MEMB      50              0.0000000000
      6140        50  23SM      C1S            30.6085850687       -8.0655793421       23.3542075111  MEMB      50              0.0000000000
      6141        50  23SM      H1S            30.8168750185       -9.0479171300       23.8295481088  MEMB      50              0.0000000000
      6142        50  23SM      H1T            31.6198650953       -7.6963706335       23.0797654957  MEMB      50              0.0000000000
      6143        50  23SM      NF             30.3438512663       -9.2283152005       21.1961412957  MEMB      50              0.0000000000
      6144        50  23SM      HNF            30.9988018599       -9.0791569111       20.4593912152  MEMB      50              0.0000000000
      6145        50  23SM      C2S            29.8251178051       -8.0680842963       21.9357177149  MEMB      50              0.0000000000
      6146        50  23SM      H2S            28.7410538853       -8.2593146799       22.0859090570  MEMB      50              0.0000000000
      6147        50  23SM      C3S            30.0423838409       -6.7355813137       21.1603413499  MEMB      50              0.0000000000
      6148        50  23SM      H3S            31.1183333734       -6.5535445105       20.9517362796  MEMB      50              0.0000000000
      6149        50  23SM      O3             29.5858565744       -5.5847373958       21.8404792358  MEMB      50              0.0000000000
      6150        50  23SM      HO3            29.1656198775       -5.8447010274       22.6635345312  MEMB      50              0.0000000000
      6151        50  23SM      C4S            29.3992130811       -7.0264496735       19.7515599226  MEMB      50              0.0000000000
      6152        50  23SM      H4S            29.9051711558       -7.6717304282       19.0183346539  MEMB      50              0.0000000000
      6153        50  23SM      C5S            28.1976614348       -6.5523360106       19.3778605801  MEMB      50              0.0000000000
      6154        50  23SM      H5S            27.5996703808       -5.8627451465       19.9917584975  MEMB      50              0.0000000000
      6155        50  23SM      C6S            27.4727521017       -6.7767731879       18.0110078618  MEMB      50              0.0000000000
      6156        50  23SM      H6S            26.3787989705       -6.5846172160       18.0367701623  MEMB      50              0.0000000000
      6157        50  23SM      H6T            27.4942343493       -7.8678047852       17.8024184047  MEMB      50              0.0000000000
      6158        50  23SM      C7S            28.2975265200       -6.0875780010       16.8453922168  MEMB      50              0.0000000000
      6159        50  23SM      H7S            29.3369572350       -5.8971721309       17.1883942381  MEMB      50              0.0000000000
      6160        50  23SM      H7T            27.8335918479       -5.1387605924       16.5006729481  MEMB      50              0.0000000000
      6161        50  23SM      C8S            28.4645209004       -6.9966472577       15.6676067381  MEMB      50              0.0000000000
      6162        50  23SM      H8S            27.4569713966       -7.4297268238       15.4898225664  MEMB      50              0.0000000000
      6163        50  23SM      H8T            29.2602795097       -7.7370896240       15.8974642928  MEMB      50              0.0000000000
      6164        50  23SM      C9S            28.9423949532       -6.2108751482       14.4454406249  MEMB      50              0.0000000000
      6165        50  23SM      H9S            29.9619995478       -5.8555409951       14.7070992831  MEMB      50              0.0000000000
      6166        50  23SM      H9T            28.3387417423       -5.2822631203       14.3582443642  MEMB      50              0.0000000000
      6167        50  23SM      C10S           29.0418021510       -6.8873889058       13.0973249126  MEMB      50              0.0000000000
      6168        50  23SM      H10S           28.0721906094       -7.3223090420       12.7732590251  MEMB      50              0.0000000000
      6169        50  23SM      H10T           29.8368823566       -7.6619421823       13.0500420752  MEMB      50              0.0000000000
      6170        50  23SM      C11S           29.4566510470       -5.8098644691       12.0715206860  MEMB      50              0.0000000000
      6171        50  23SM      H11S           30.4212208824       -5.2850167045       12.2402239889  MEMB      50              0.0000000000
      6172        50  23SM      H11T           28.6080016033       -5.0968505852       11.9958482339  MEMB      50              0.0000000000
      6173        50  23SM      C12S           29.6525502900       -6.5031908245       10.6530415695  MEMB      50              0.0000000000
      6174        50  23SM      H12S           28.7796458803       -7.1169421894       10.3437394107  MEMB      50              0.0000000000
      6175        50  23SM      H12T           30.4857793965       -7.2084093340       10.8597234002  MEMB      50              0.0000000000
      6176        50  23SM      C13S           30.1550476082       -5.4369950993        9.6661892982  MEMB      50              0.0000000000
      6177        50  23SM      H13S           31.0948811938       -4.9504423639       10.0042724169  MEMB      50              0.0000000000
      6178        50  23SM      H13T           29.3537022205       -4.6775346238        9.5421482433  MEMB      50              0.0000000000
      6179        50  23SM      C14S           30.5202275004       -6.1372904939        8.4261714495  MEMB      50              0.0000000000
      6180        50  23SM      H14S           29.6565157375       -6.6866530182        7.9942862738  MEMB      50              0.0000000000
      6181        50  23SM      H14T           31.3269923834       -6.8410607845        8.7230863302  MEMB      50              0.0000000000
      6182        50  23SM      C15S           31.1245032129       -5.1296655931        7.3335803679  MEMB      50              0.0000000000
      6183        50  23SM      H15S           32.0274733572       -4.6834863569        7.8025050098  MEMB      50              0.0000000000
      6184        50  23SM      H15T           30.4182902138       -4.2944706823        7.1385568562  MEMB      50              0.0000000000
      6185        50  23SM      C16S           31.6244949743       -5.8480954786        5.9705509925  MEMB      50              0.0000000000
      6186        50  23SM      H16S           30.7392693835       -6.3051142303        5.4787881778  MEMB      50              0.0000000000
      6187        50  23SM      H16T           32.2765366588       -6.6685850592        6.3392793878  MEMB      50              0.0000000000
      6188        50  23SM      C17S           32.3176576433       -4.8199281751        5.0039971058  MEMB      50              0.0000000000
      6189        50  23SM      H17S           33.3138186453       -4.5998910387        5.4439613142  MEMB      50              0.0000000000
      6190        50  23SM      H17T           31.7648412384       -3.8565071328        5.0271270371  MEMB      50              0.0000000000
      6191        50  23SM      C18S           32.5615134526       -5.2216875618        3.5791607743  MEMB      50              0.0000000000
      6192        50  23SM      H18S           33.3574494491       -5.9951736149        3.5288968280  MEMB      50              0.0000000000
      6193        50  23SM      H18T           32.8986980988       -4.4073226264        2.9028190583  MEMB      50              0.0000000000
      6194        50  23SM      H18U           31.5950588418       -5.5900181834        3.1734283877  MEMB      50              0.0000000000
      6195        50  23SM      C1F            30.2455239059      -10.5267957196       21.5811256000  MEMB      50              0.0000000000
      6196        50  23SM      OF             29.4146388154      -10.8080216236       22.4654240849  MEMB      50              0.0000000000
      6197        50  23SM      C2F            30.9903260244      -11.5431404623       20.7188401437  MEMB      50              0.0000000000
      6198        50  23SM      H2F            30.8808721693      -12.5880907127       21.0799773827  MEMB      50              0.0000000000
      6199        50  23SM      H2G            32.0714210340      -11.2909082012       20.7628127809  MEMB      50              0.0000000000
      6200        50  23SM      C3F            30.5331186088      -11.4014944419       19.2397205976  MEMB      50              0.0000000000
      6201        50  23SM      H3F            30.5904374780      -10.3480109689       18.8915710524  MEMB      50              0.0000000000
      6202        50  23SM      H3G            29.4413919227      -11.5983172808       19.1787736030  MEMB      50              0.0000000000
      6203        50  23SM      C4F            31.2843492503      -12.3064675587       18.2711759432  MEMB      50              0.0000000000
      6204        50  23SM      H4F            31.1536785149      -13.3863697043       18.4971336181  MEMB      50              0.0000000000
      6205        50  23SM      H4G            32.3817885086      -12.1515942027       18.3483907901  MEMB      50              0.0000000000
      6206        50  23SM      C5F            30.8362041033      -12.0369476861       16.8095102357  MEMB      50              0.0000000000
      6207        50  23SM      H5F            29.7266251391      -12.0930925288       16.8076999185  MEMB      50              0.0000000000
      6208        50  23SM      H5G            31.1952111109      -12.8999172792       16.2089117726  MEMB      50              0.0000000000
      6209        50  23SM      C6F            31.4286014900      -10.7852639207       16.0929002334  MEMB      50              0.0000000000
      6210        50  23SM      H6F            32.5376917530      -10.7547348304       16.1504146119  MEMB      50              0.0000000000
      6211        50  23SM      H6G            31.1689113419       -9.8241969531       16.5860862439  MEMB      50              0.0000000000
      6212        50  23SM      C7F            31.0324294044      -10.7587005073       14.5659456131  MEMB      50              0.0000000000
      6213        50  23SM      H7F            30.0210934161      -10.2992963287       14.5875866717  MEMB      50              0.0000000000
      6214        50  23SM      H7G            31.0702574764      -11.8095898005       14.2074466241  MEMB      50              0.0000000000
      6215        50  23SM      C8F            32.0522894571       -9.9348685010       13.7015974336  MEMB      50              0.0000000000
      6216        50  23SM      H8F            33.0505939073      -10.3917438310       13.8718158719  MEMB      50              0.0000000000
      6217        50  23SM      H8G            32.0429825746       -8.9305808481       14.1766140767  MEMB      50              0.0000000000
      6218        50  23SM      C9F            31.7747196952       -9.8531520250       12.1776184621  MEMB      50              0.0000000000
      6219        50  23SM      H9F            30.7598306274       -9.4360061549       12.0035196836  MEMB      50              0.0000000000
      6220        50  23SM      H9G            31.7301822051      -10.8587123664       11.7073148754  MEMB      50              0.0000000000
      6221        50  23SM      C10F           32.6007513275       -8.8037074138       11.5307706662  MEMB      50              0.0000000000
      6222        50  23SM      H10F           32.7405921383       -8.0171886921       12.3028799586  MEMB      50              0.0000000000
      6223        50  23SM      H10G           32.2157413057       -8.4069979680       10.5670741930  MEMB      50              0.0000000000
      6224        50  23SM      C11F           34.0126462517       -9.2672998680       11.0707828947  MEMB      50              0.0000000000
      6225        50  23SM      H11F           34.5547317848       -9.7901727268       11.8875255853  MEMB      50              0.0000000000
      6226        50  23SM      H11G           34.6127574084       -8.3555985862       10.8634454006  MEMB      50              0.0000000000
      6227        50  23SM      C12F           33.9115576425      -10.2739260814        9.9345031103  MEMB      50              0.0000000000
      6228        50  23SM      H12F           33.1295542191      -11.0091330243       10.2213180915  MEMB      50              0.0000000000
      6229        50  23SM      H12G           34.9310665794      -10.6933494457        9.7966408632  MEMB      50              0.0000000000
      6230        50  23SM      C13F           33.5181698852       -9.5952859152        8.5317981365  MEMB      50              0.0000000000
      6231        50  23SM      H13F           33.9485762738       -8.5766627916        8.4246600821  MEMB      50              0.0000000000
      6232        50  23SM      H13G           32.4146349527       -9.5057219996        8.6240493370  MEMB      50              0.0000000000
      6233        50  23SM      C14F           33.7852819356      -10.4746083144        7.2094221543  MEMB      50              0.0000000000
      6234        50  23SM      H14F           33.5032931587      -11.5356176111        7.3798989742  MEMB      50              0.0000000000
      6235        50  23SM      H14G           34.8749943117      -10.5280877008        6.9996901692  MEMB      50              0.0000000000
      6236        50  23SM      C15F           33.1996936311       -9.9687955314        5.9261497469  MEMB      50              0.0000000000
      6237        50  23SM      H15F           33.5908204291      -10.4789540774        5.0200166290  MEMB      50              0.0000000000
      6238        50  23SM      H15G           33.3635285394       -8.8721210102        5.8569844266  MEMB      50              0.0000000000
      6239        50  23SM      C16F           31.6633434024      -10.1368764618        5.8579209681  MEMB      50              0.0000000000
      6240        50  23SM      H16F           31.2190905514       -9.4547865307        6.6140373682  MEMB      50              0.0000000000
      6241        50  23SM      H16G           31.4980753476      -11.1955676064        6.1514860963  MEMB      50              0.0000000000
      6242        50  23SM      C17F           31.0713064621       -9.7276346509        4.4862225418  MEMB      50              0.0000000000
      6243        50  23SM      H17F           31.5041127648       -8.7381292694        4.2256852921  MEMB      50              0.0000000000
      6244        50  23SM      H17G           29.9722416728       -9.5723708682        4.5338735416  MEMB      50              0.0000000000
      6245        50  23SM      C18F           31.4902265875      -10.6060601973        3.2816421386  MEMB      50              0.0000000000
      6246        50  23SM      H18F           32.5845977438      -10.6480980728        3.0948119266  MEMB      50              0.0000000000
      6247        50  23SM      H18G           30.9144397521      -10.2453646721        2.4026144355  MEMB      50              0.0000000000
      6248        50  23SM      C19F           31.0228282753      -12.1125845737        3.4114619584  MEMB      50              0.0000000000
      6249        50  23SM      H19F           31.5243336128      -12.5652863364        4.2934345088  MEMB      50              0.0000000000
      6250        50  23SM      H19G           31.2790789368      -12.7882530176        2.5675837197  MEMB      50              0.0000000000
      6251        50  23SM      C20F           29.5197787230      -12.1818100997        3.5551664542  MEMB      50              0.0000000000
      6252        50  23SM      H20F           29.0512469263      -11.2503647054        3.9388430147  MEMB      50              0.0000000000
      6253        50  23SM      H20G           29.3073451223      -13.0377047994        4.2309148531  MEMB      50              0.0000000000
      6254        50  23SM      C21F           28.7066886092      -12.5955538836        2.3337387311  MEMB      50              0.0000000000
      6255        50  23SM      H21F           27.9000629399      -13.3347482095        2.5267881749  MEMB      50              0.0000000000
      6256        50  23SM      H21G           29.3776931797      -13.2532942424        1.7409057229  MEMB      50              0.0000000000
      6257        50  23SM      C22F           28.0457704684      -11.3300225534        1.7020742861  MEMB      50              0.0000000000
      6258        50  23SM      H22F           28.6517491709      -10.4218883654        1.9079952273  MEMB      50              0.0000000000
      6259        50  23SM      H22G           27.1631286424      -11.0067531974        2.2943250803  MEMB      50              0.0000000000
      6260        50  23SM      C23F           27.7296399043      -11.5531409951        0.2457918917  MEMB      50              0.0000000000
      6261        50  23SM      H23F           27.1672870812      -12.4909008732        0.0491029523  MEMB      50              0.0000000000
      6262        50  23SM      H23G           28.6661800442      -11.6450116861       -0.3447788853  MEMB      50              0.0000000000
      6263        50  23SM      H23H           27.1266316107      -10.6651802584       -0.0409619227  MEMB      50              0.0000000000
      6264        51  DOPE      N              29.5035934731        7.1931200282       22.0723872625  MEMB      51              0.0000000000
      6265        51  DOPE      HN1            29.5665462816        6.8054289636       23.0353682236  MEMB      51              0.0000000000
      6266        51  DOPE      HN2            29.8971857012        8.1557624932       22.0702307927  MEMB      51              0.0000000000
      6267        51  DOPE      HN3            28.5000322029        7.1649935738       21.8009584060  MEMB      51              0.0000000000
      6268        51  DOPE      C12            30.4270519932        6.4127957431       21.1243635047  MEMB      51              0.0000000000
      6269        51  DOPE      H12A           30.0882224615        5.3557842482       21.0770115667  MEMB      51              0.0000000000
      6270        51  DOPE      H12B           31.3963306938        6.4594981656       21.6653244459  MEMB      51              0.0000000000
      6271        51  DOPE      C11            30.4806865818        7.0283456627       19.7565762948  MEMB      51              0.0000000000
      6272        51  DOPE      H11A           31.2404778315        6.4489814667       19.1896764031  MEMB      51              0.0000000000
      6273        51  DOPE      H11B           30.8309087817        8.0728563985       19.9003217566  MEMB      51              0.0000000000
      6274        51  DOPE      P              28.9561027222        7.7283298098       17.7624327132  MEMB      51              0.0000000000
      6275        51  DOPE      O13            27.5056796884        7.8005707334       17.4711500120  MEMB      51              0.0000000000
      6276        51  DOPE      O14            29.7599127950        7.1755877395       16.6982287956  MEMB      51              0.0000000000
      6277        51  DOPE      O11            29.5019531991        9.2940506670       18.0373323378  MEMB      51              0.0000000000
      6278        51  DOPE      O12            29.2327987099        6.9588803229       19.0775290793  MEMB      51              0.0000000000
      6279        51  DOPE      C1             28.6894172716        9.9767522418       18.9927878318  MEMB      51              0.0000000000
      6280        51  DOPE      HA             29.2425818530        9.9888375573       19.9562107901  MEMB      51              0.0000000000
      6281        51  DOPE      HB             27.7387456463        9.4714989372       19.2671302161  MEMB      51              0.0000000000
      6282        51  DOPE      C2             28.3701660311       11.4492848451       18.6152326794  MEMB      51              0.0000000000
      6283        51  DOPE      HS             27.7872965679       12.0141969834       19.3738223218  MEMB      51              0.0000000000
      6284        51  DOPE      O21            27.5853118182       11.3812177131       17.3725470306  MEMB      51              0.0000000000
      6285        51  DOPE      C21            26.2612129111       11.0852868673       17.3886810168  MEMB      51              0.0000000000
      6286        51  DOPE      O22            25.6352548758       10.6787803208       18.3644766507  MEMB      51              0.0000000000
      6287        51  DOPE      C22            25.7377717951       11.1192805013       15.9458874394  MEMB      51              0.0000000000
      6288        51  DOPE      H2R            26.2794205113       11.9255284036       15.4065338230  MEMB      51              0.0000000000
      6289        51  DOPE      H2S            24.6690545542       11.4228242227       15.9509270210  MEMB      51              0.0000000000
      6290        51  DOPE      C3             29.5539628719       12.3378439383       18.4125256885  MEMB      51              0.0000000000
      6291        51  DOPE      HX             30.1536435706       12.4781220274       19.3372019971  MEMB      51              0.0000000000
      6292        51  DOPE      HY             29.2159136835       13.3699622781       18.1784832706  MEMB      51              0.0000000000
      6293        51  DOPE      O31            30.4535983759       11.7323881053       17.4692168893  MEMB      51              0.0000000000
      6294        51  DOPE      C31            30.4493122496       12.2483662328       16.3206143259  MEMB      51              0.0000000000
      6295        51  DOPE      O32            29.6432281285       13.0665945347       15.8779604903  MEMB      51              0.0000000000
      6296        51  DOPE      C32            31.7168764056       11.7803764498       15.5944285756  MEMB      51              0.0000000000
      6297        51  DOPE      H2X            32.3119202731       12.6572336367       15.2607142490  MEMB      51              0.0000000000
      6298        51  DOPE      H2Y            32.3473133567       11.1641187304       16.2705179285  MEMB      51              0.0000000000
      6299        51  DOPE      C23            25.7913512542        9.7857599124       15.2391144606  MEMB      51              0.0000000000
      6300        51  DOPE      H3R            24.7474559824        9.4278927593       15.3677018425  MEMB      51              0.0000000000
      6301        51  DOPE      H3S            26.4526023609        8.9635597813       15.5870438913  MEMB      51              0.0000000000
      6302        51  DOPE      C24            25.7522304870        9.8848668674       13.7167317902  MEMB      51              0.0000000000
      6303        51  DOPE      H4R            26.7813046267       10.2174015791       13.4622755220  MEMB      51              0.0000000000
      6304        51  DOPE      H4S            25.1351211685       10.7675603389       13.4440612095  MEMB      51              0.0000000000
      6305        51  DOPE      C25            25.2847302347        8.6192038547       12.9295362543  MEMB      51              0.0000000000
      6306        51  DOPE      H5R            24.2150313966        8.5364797619       13.2180187765  MEMB      51              0.0000000000
      6307        51  DOPE      H5S            25.8465847705        7.7641059490       13.3624887448  MEMB      51              0.0000000000
      6308        51  DOPE      C26            25.3862858882        8.5515737369       11.3612278042  MEMB      51              0.0000000000
      6309        51  DOPE      H6R            24.8696184473        7.6151238652       11.0605001053  MEMB      51              0.0000000000
      6310        51  DOPE      H6S            26.4407675125        8.4328448125       11.0321494113  MEMB      51              0.0000000000
      6311        51  DOPE      C27            24.8418870597        9.7194738882       10.6499687128  MEMB      51              0.0000000000
      6312        51  DOPE      H7R            25.6161114974       10.5162604818       10.6553058183  MEMB      51              0.0000000000
      6313        51  DOPE      H7S            23.9096830496       10.0657944264       11.1453257584  MEMB      51              0.0000000000
      6314        51  DOPE      C28            24.6279923882        9.5047915848        9.1029451176  MEMB      51              0.0000000000
      6315        51  DOPE      H8R            25.6123819702        9.0996359688        8.7849093351  MEMB      51              0.0000000000
      6316        51  DOPE      H8S            24.4222265952       10.4576502261        8.5699887969  MEMB      51              0.0000000000
      6317        51  DOPE      C29            23.5272807718        8.5122858443        8.8668406984  MEMB      51              0.0000000000
      6318        51  DOPE      H9R            22.5538801930        8.9198979295        9.1772334221  MEMB      51              0.0000000000
      6319        51  DOPE      C210           23.6327723825        7.3209198700        8.3462349747  MEMB      51              0.0000000000
      6320        51  DOPE      H10R           22.7585835274        6.6548425438        8.3924406767  MEMB      51              0.0000000000
      6321        51  DOPE      C211           24.8859153384        6.5856216361        7.8822734233  MEMB      51              0.0000000000
      6322        51  DOPE      H11R           25.0414555932        5.8166789850        8.6689474973  MEMB      51              0.0000000000
      6323        51  DOPE      H11S           25.8218584064        7.1811527449        7.8216578083  MEMB      51              0.0000000000
      6324        51  DOPE      C212           24.6945552801        5.6172529932        6.6748153872  MEMB      51              0.0000000000
      6325        51  DOPE      H12R           23.9055721580        4.8440573998        6.7931161830  MEMB      51              0.0000000000
      6326        51  DOPE      H12S           25.6554855216        5.1532741029        6.3655288293  MEMB      51              0.0000000000
      6327        51  DOPE      C213           24.2732189013        6.3431088799        5.3791485238  MEMB      51              0.0000000000
      6328        51  DOPE      H13R           23.2118565180        6.6677659013        5.4284363098  MEMB      51              0.0000000000
      6329        51  DOPE      H13S           24.2995679878        5.5625955441        4.5889420855  MEMB      51              0.0000000000
      6330        51  DOPE      C214           25.1869528789        7.5602034594        5.0123313345  MEMB      51              0.0000000000
      6331        51  DOPE      H14R           26.2013583031        7.1228082522        4.8940591982  MEMB      51              0.0000000000
      6332        51  DOPE      H14S           25.3072170696        8.1675672836        5.9348101252  MEMB      51              0.0000000000
      6333        51  DOPE      C215           24.7646631215        8.3314150843        3.7457637955  MEMB      51              0.0000000000
      6334        51  DOPE      H15R           25.4771994803        9.1837442351        3.7579374210  MEMB      51              0.0000000000
      6335        51  DOPE      H15S           23.7786263985        8.7718095647        4.0067340062  MEMB      51              0.0000000000
      6336        51  DOPE      C216           24.8215714342        7.5022630945        2.4097529637  MEMB      51              0.0000000000
      6337        51  DOPE      H16R           24.3914580959        6.4845011018        2.5258735553  MEMB      51              0.0000000000
      6338        51  DOPE      H16S           25.9042638761        7.4215113628        2.1740051140  MEMB      51              0.0000000000
      6339        51  DOPE      C217           24.0293538507        8.2008730793        1.2753362446  MEMB      51              0.0000000000
      6340        51  DOPE      H17R           24.2568028433        7.5242638574        0.4239922409  MEMB      51              0.0000000000
      6341        51  DOPE      H17S           24.5584520210        9.1391946470        1.0034368980  MEMB      51              0.0000000000
      6342        51  DOPE      C218           22.4685689245        8.1965474711        1.4675143454  MEMB      51              0.0000000000
      6343        51  DOPE      H18R           22.1049925488        8.7017233054        2.3878041346  MEMB      51              0.0000000000
      6344        51  DOPE      H18S           22.0991708725        7.1525155984        1.3788381856  MEMB      51              0.0000000000
      6345        51  DOPE      H18T           22.0337234681        8.6544776222        0.5534424612  MEMB      51              0.0000000000
      6346        51  DOPE      C33            31.2910918701       10.8988359242       14.3870378581  MEMB      51              0.0000000000
      6347        51  DOPE      H3X            32.1470777953       10.8410941662       13.6811521729  MEMB      51              0.0000000000
      6348        51  DOPE      H3Y            30.4603913537       11.2398107132       13.7328251831  MEMB      51              0.0000000000
      6349        51  DOPE      C34            30.8418736357        9.4602579593       14.8257243169  MEMB      51              0.0000000000
      6350        51  DOPE      H4X            31.6846803864        8.8604300339       15.2309458627  MEMB      51              0.0000000000
      6351        51  DOPE      H4Y            30.0601805768        9.6268459806       15.5974272786  MEMB      51              0.0000000000
      6352        51  DOPE      C35            30.0488588674        8.8257653710       13.6849401218  MEMB      51              0.0000000000
      6353        51  DOPE      H5X            29.1248302283        9.3633788560       13.3825097233  MEMB      51              0.0000000000
      6354        51  DOPE      H5Y            29.9793770669        7.7637457509       14.0036992738  MEMB      51              0.0000000000
      6355        51  DOPE      C36            30.8898055523        8.4851322451       12.3937682573  MEMB      51              0.0000000000
      6356        51  DOPE      H6X            31.8771923073        8.1038465911       12.7314216325  MEMB      51              0.0000000000
      6357        51  DOPE      H6Y            30.9073341698        9.4389774795       11.8243884922  MEMB      51              0.0000000000
      6358        51  DOPE      C37            30.1544952317        7.4463531494       11.4800948794  MEMB      51              0.0000000000
      6359        51  DOPE      H7X            29.8383789286        6.5136377179       11.9943259196  MEMB      51              0.0000000000
      6360        51  DOPE      H7Y            29.1762934462        7.8415254239       11.1318404564  MEMB      51              0.0000000000
      6361        51  DOPE      C38            30.9400139692        6.9859977544       10.2977831994  MEMB      51              0.0000000000
      6362        51  DOPE      H8X            30.2332347577        6.5154467123        9.5812868250  MEMB      51              0.0000000000
      6363        51  DOPE      H8Y            31.7990234009        6.3850308197       10.6655632064  MEMB      51              0.0000000000
      6364        51  DOPE      C39            31.4970368205        8.1743922285        9.5274319056  MEMB      51              0.0000000000
      6365        51  DOPE      H9X            32.5153119934        8.4617809126        9.8283032531  MEMB      51              0.0000000000
      6366        51  DOPE      C310           30.8049894496        8.8857053305        8.5395271449  MEMB      51              0.0000000000
      6367        51  DOPE      H10X           31.3412908570        9.6957541442        8.0235796094  MEMB      51              0.0000000000
      6368        51  DOPE      C311           29.3326236591        8.6048515857        8.1171334207  MEMB      51              0.0000000000
      6369        51  DOPE      H11X           28.9833660212        7.5774084109        8.3552527463  MEMB      51              0.0000000000
      6370        51  DOPE      H11Y           28.7717414238        9.3175865732        8.7588042117  MEMB      51              0.0000000000
      6371        51  DOPE      C312           29.1433347762        8.8157513421        6.6244512586  MEMB      51              0.0000000000
      6372        51  DOPE      H12X           29.3016134641        9.8966888829        6.4223555561  MEMB      51              0.0000000000
      6373        51  DOPE      H12Y           28.0870396627        8.5830639982        6.3706448925  MEMB      51              0.0000000000
      6374        51  DOPE      C313           30.1197561624        8.1098440937        5.7301226611  MEMB      51              0.0000000000
      6375        51  DOPE      H13X           31.1641858852        8.3303251283        6.0381415112  MEMB      51              0.0000000000
      6376        51  DOPE      H13Y           29.9665607272        7.0185514296        5.8713047858  MEMB      51              0.0000000000
      6377        51  DOPE      C314           29.9308647442        8.6351285565        4.3428027928  MEMB      51              0.0000000000
      6378        51  DOPE      H14X           29.9735795618        9.7336531931        4.5032396475  MEMB      51              0.0000000000
      6379        51  DOPE      H14Y           28.9960054316        8.2932971004        3.8493362632  MEMB      51              0.0000000000
      6380        51  DOPE      C315           30.9920556481        8.3617004247        3.2800953644  MEMB      51              0.0000000000
      6381        51  DOPE      H15X           31.9994618939        8.4458973847        3.7409257002  MEMB      51              0.0000000000
      6382        51  DOPE      H15Y           30.8198881979        9.1537026575        2.5202200223  MEMB      51              0.0000000000
      6383        51  DOPE      C316           30.7989726047        7.0279738226        2.5712399875  MEMB      51              0.0000000000
      6384        51  DOPE      H16X           29.7878228022        6.7606114794        2.1965206105  MEMB      51              0.0000000000
      6385        51  DOPE      H16Y           31.0620856363        6.2547984295        3.3244284904  MEMB      51              0.0000000000
      6386        51  DOPE      C317           31.7045118524        6.8588433738        1.3449723172  MEMB      51              0.0000000000
      6387        51  DOPE      H17X           32.7971103132        7.0173619300        1.4691563048  MEMB      51              0.0000000000
      6388        51  DOPE      H17Y           31.7291580480        5.7765890316        1.0950940223  MEMB      51              0.0000000000
      6389        51  DOPE      C318           31.1612696473        7.4407596580        0.0171970219  MEMB      51              0.0000000000
      6390        51  DOPE      H18X           31.2147216108        8.5504239623        0.0276332310  MEMB      51              0.0000000000
      6391        51  DOPE      H18Y           31.9348079636        7.1709112957       -0.7332302292  MEMB      51              0.0000000000
      6392        51  DOPE      H18Z           30.1056960643        7.2624095293       -0.2799160706  MEMB      51              0.0000000000
      6393        52  DOPC      N              22.7114854610       18.3313462716       20.0585244685  MEMB      52              0.0000000000
      6394        52  DOPC      C12            23.8820640598       18.9680919622       19.2389398601  MEMB      52              0.0000000000
      6395        52  DOPC      H12A           23.7686300322       18.5090102284       18.2679729252  MEMB      52              0.0000000000
      6396        52  DOPC      H12B           24.7796749882       18.5254492409       19.6448487481  MEMB      52              0.0000000000
      6397        52  DOPC      C13            22.7673082907       16.8261403491       19.9972792032  MEMB      52              0.0000000000
      6398        52  DOPC      H13A           21.8452445708       16.4744478884       20.4360396849  MEMB      52              0.0000000000
      6399        52  DOPC      H13B           22.6573973402       16.4787073779       18.9806130762  MEMB      52              0.0000000000
      6400        52  DOPC      H13C           23.6593330250       16.4519702942       20.4775797266  MEMB      52              0.0000000000
      6401        52  DOPC      C14            21.3822301678       18.6989740877       19.4363633077  MEMB      52              0.0000000000
      6402        52  DOPC      H14A           21.2160963458       19.7544938036       19.5934546301  MEMB      52              0.0000000000
      6403        52  DOPC      H14B           21.3592033991       18.4186500308       18.3936321866  MEMB      52              0.0000000000
      6404        52  DOPC      H14C           20.7009454692       18.1386409088       20.0594826220  MEMB      52              0.0000000000
      6405        52  DOPC      C15            22.7388527847       18.8289476492       21.5228037590  MEMB      52              0.0000000000
      6406        52  DOPC      H15A           21.7447973290       18.8142683765       21.9447495447  MEMB      52              0.0000000000
      6407        52  DOPC      H15B           22.8680876069       19.8909243622       21.3748050946  MEMB      52              0.0000000000
      6408        52  DOPC      H15C           23.4700293635       18.3397247710       22.1492554591  MEMB      52              0.0000000000
      6409        52  DOPC      C11            23.9238743948       20.5299603121       19.2125464993  MEMB      52              0.0000000000
      6410        52  DOPC      H11A           24.3375373911       20.7866234685       20.2112095676  MEMB      52              0.0000000000
      6411        52  DOPC      H11B           24.6097550291       20.8265439883       18.3903987421  MEMB      52              0.0000000000
      6412        52  DOPC      P              22.3878846234       22.2296237306       17.8506910453  MEMB      52              0.0000000000
      6413        52  DOPC      O13            23.1249845117       23.4922378600       17.9144817865  MEMB      52              0.0000000000
      6414        52  DOPC      O14            20.9204474900       22.3824033754       18.0168593329  MEMB      52              0.0000000000
      6415        52  DOPC      O12            22.7143664870       21.2160315291       19.1021218173  MEMB      52              0.0000000000
      6416        52  DOPC      O11            22.8132798307       21.2493393709       16.6493889219  MEMB      52              0.0000000000
      6417        52  DOPC      C1             21.8890482151       20.2537271461       16.1971368250  MEMB      52              0.0000000000
      6418        52  DOPC      HA             21.1426953536       20.7597107726       15.5480920957  MEMB      52              0.0000000000
      6419        52  DOPC      HB             21.3370859071       19.7682446067       17.0301825676  MEMB      52              0.0000000000
      6420        52  DOPC      C2             22.5784349306       19.1119677891       15.4032031194  MEMB      52              0.0000000000
      6421        52  DOPC      HS             23.3477699083       18.7900478845       16.1372413645  MEMB      52              0.0000000000
      6422        52  DOPC      O21            23.1767037584       19.8024611910       14.2716960979  MEMB      52              0.0000000000
      6423        52  DOPC      C21            24.2676925753       19.3137688882       13.6625585935  MEMB      52              0.0000000000
      6424        52  DOPC      O22            24.8631775921       18.3489137613       14.0309637550  MEMB      52              0.0000000000
      6425        52  DOPC      C22            24.6586954027       20.2968768325       12.6224419787  MEMB      52              0.0000000000
      6426        52  DOPC      H2R            25.6975061725       20.6607416397       12.7734256594  MEMB      52              0.0000000000
      6427        52  DOPC      H2S            23.9379155394       21.1421654275       12.6055777165  MEMB      52              0.0000000000
      6428        52  DOPC      C3             21.5774360295       17.9178249403       15.0497621810  MEMB      52              0.0000000000
      6429        52  DOPC      HX             21.3017582871       17.6089307572       16.0807363448  MEMB      52              0.0000000000
      6430        52  DOPC      HY             22.2402124403       17.1714498374       14.5619377870  MEMB      52              0.0000000000
      6431        52  DOPC      O31            20.3148556223       18.4081993672       14.4689167974  MEMB      52              0.0000000000
      6432        52  DOPC      C31            20.2232092123       18.3140746729       13.1775572604  MEMB      52              0.0000000000
      6433        52  DOPC      O32            20.9024082575       17.6131093756       12.4424100801  MEMB      52              0.0000000000
      6434        52  DOPC      C32            18.9386475935       18.9878738196       12.6498670502  MEMB      52              0.0000000000
      6435        52  DOPC      H2X            18.0932012969       19.0026726976       13.3705075703  MEMB      52              0.0000000000
      6436        52  DOPC      H2Y            19.2059154868       20.0299771865       12.3725416126  MEMB      52              0.0000000000
      6437        52  DOPC      C23            24.5685713827       19.5661617588       11.2553192825  MEMB      52              0.0000000000
      6438        52  DOPC      H3R            24.9488028334       18.5224280040       11.2362218266  MEMB      52              0.0000000000
      6439        52  DOPC      H3S            25.0937273607       20.2333806882       10.5388338240  MEMB      52              0.0000000000
      6440        52  DOPC      C24            23.1279573428       19.4544423774       10.7627897344  MEMB      52              0.0000000000
      6441        52  DOPC      H4R            22.7677134726       20.4412902252       10.4012973033  MEMB      52              0.0000000000
      6442        52  DOPC      H4S            22.4476768769       19.1276483019       11.5781085661  MEMB      52              0.0000000000
      6443        52  DOPC      C25            22.8633387092       18.3565041334        9.7079714783  MEMB      52              0.0000000000
      6444        52  DOPC      H5R            21.7621947169       18.2988324951        9.5720399449  MEMB      52              0.0000000000
      6445        52  DOPC      H5S            23.0728231422       17.3652137275       10.1638010670  MEMB      52              0.0000000000
      6446        52  DOPC      C26            23.6429880694       18.5087450696        8.3314352998  MEMB      52              0.0000000000
      6447        52  DOPC      H6R            24.7388754019       18.3273563413        8.3526521312  MEMB      52              0.0000000000
      6448        52  DOPC      H6S            23.5904458639       19.5426814882        7.9282777953  MEMB      52              0.0000000000
      6449        52  DOPC      C27            23.1416049606       17.5195893502        7.2551719665  MEMB      52              0.0000000000
      6450        52  DOPC      H7R            22.0520852385       17.7362576748        7.2372172876  MEMB      52              0.0000000000
      6451        52  DOPC      H7S            23.1979764524       16.4575627590        7.5764856427  MEMB      52              0.0000000000
      6452        52  DOPC      C28            23.7086639888       17.7230838175        5.8176904347  MEMB      52              0.0000000000
      6453        52  DOPC      H8R            23.5545148721       16.7652277016        5.2763301559  MEMB      52              0.0000000000
      6454        52  DOPC      H8S            24.8094039436       17.8736843644        5.8210891456  MEMB      52              0.0000000000
      6455        52  DOPC      C29            23.0018958144       18.9246776450        5.1962398090  MEMB      52              0.0000000000
      6456        52  DOPC      H9R            23.7104285276       19.7055282981        4.8827853638  MEMB      52              0.0000000000
      6457        52  DOPC      C210           21.6616618772       19.0208271453        4.7613499917  MEMB      52              0.0000000000
      6458        52  DOPC      H10R           21.3252190157       19.9181706815        4.2213682010  MEMB      52              0.0000000000
      6459        52  DOPC      C211           20.5496580282       18.0988926980        4.6713205059  MEMB      52              0.0000000000
      6460        52  DOPC      H11R           19.5867642127       18.5301721096        5.0193931110  MEMB      52              0.0000000000
      6461        52  DOPC      H11S           20.9221674764       17.3547415380        5.4073891621  MEMB      52              0.0000000000
      6462        52  DOPC      C212           20.2018488973       17.3357455247        3.3072074384  MEMB      52              0.0000000000
      6463        52  DOPC      H12R           19.2674223606       16.7552618216        3.4627923953  MEMB      52              0.0000000000
      6464        52  DOPC      H12S           21.0686564335       16.6520876538        3.1823974335  MEMB      52              0.0000000000
      6465        52  DOPC      C213           19.9876787253       18.2180872818        2.1028633763  MEMB      52              0.0000000000
      6466        52  DOPC      H13R           19.6780300972       17.4682517587        1.3437945672  MEMB      52              0.0000000000
      6467        52  DOPC      H13S           20.8794834171       18.8142541410        1.8137432691  MEMB      52              0.0000000000
      6468        52  DOPC      C214           18.8416387258       19.2057506891        2.1205360070  MEMB      52              0.0000000000
      6469        52  DOPC      H14R           19.0397480685       19.9183554206        2.9495538803  MEMB      52              0.0000000000
      6470        52  DOPC      H14S           17.9466487310       18.7644814610        2.6089984800  MEMB      52              0.0000000000
      6471        52  DOPC      C215           18.4640422502       19.9648498402        0.8550883063  MEMB      52              0.0000000000
      6472        52  DOPC      H15R           17.8118500646       19.3194960025        0.2286021507  MEMB      52              0.0000000000
      6473        52  DOPC      H15S           19.3732222038       20.2519177908        0.2847338144  MEMB      52              0.0000000000
      6474        52  DOPC      C216           17.6350159291       21.2415639728        1.1052033395  MEMB      52              0.0000000000
      6475        52  DOPC      H16R           18.2169214345       22.0384851691        1.6157160185  MEMB      52              0.0000000000
      6476        52  DOPC      H16S           16.6365965609       21.0411658721        1.5494108537  MEMB      52              0.0000000000
      6477        52  DOPC      C217           17.3383963500       21.9968178298       -0.2686341223  MEMB      52              0.0000000000
      6478        52  DOPC      H17R           16.6236869855       22.8457149757       -0.2149215183  MEMB      52              0.0000000000
      6479        52  DOPC      H17S           16.9049669710       21.1747392141       -0.8774413597  MEMB      52              0.0000000000
      6480        52  DOPC      C218           18.5083222252       22.5354395051       -1.1427201507  MEMB      52              0.0000000000
      6481        52  DOPC      H18R           19.4244065523       21.9213437985       -1.0085696212  MEMB      52              0.0000000000
      6482        52  DOPC      H18S           18.5967439145       23.6373947354       -1.0322782606  MEMB      52              0.0000000000
      6483        52  DOPC      H18T           18.2059296868       22.4852837664       -2.2105980050  MEMB      52              0.0000000000
      6484        52  DOPC      C33            18.4621240083       18.4847911285       11.3275139960  MEMB      52              0.0000000000
      6485        52  DOPC      H3X            17.9604584092       17.5157155900       11.5361883887  MEMB      52              0.0000000000
      6486        52  DOPC      H3Y            19.3786768154       18.2679586791       10.7382467917  MEMB      52              0.0000000000
      6487        52  DOPC      C34            17.5074300387       19.4022135991       10.5434211590  MEMB      52              0.0000000000
      6488        52  DOPC      H4X            16.5958246135       19.4960400572       11.1715082257  MEMB      52              0.0000000000
      6489        52  DOPC      H4Y            17.0954455472       18.8894540012        9.6480624668  MEMB      52              0.0000000000
      6490        52  DOPC      C35            17.9091024384       20.8207152171       10.0496931514  MEMB      52              0.0000000000
      6491        52  DOPC      H5X            17.9896596709       21.6146236143       10.8227008565  MEMB      52              0.0000000000
      6492        52  DOPC      H5Y            17.0436380272       21.2073413795        9.4701994156  MEMB      52              0.0000000000
      6493        52  DOPC      C36            19.1681385356       20.7281864697        9.1821309821  MEMB      52              0.0000000000
      6494        52  DOPC      H6X            20.0398205444       20.1815280976        9.6012441042  MEMB      52              0.0000000000
      6495        52  DOPC      H6Y            18.7999299863       20.0281900307        8.4019080563  MEMB      52              0.0000000000
      6496        52  DOPC      C37            19.5871498345       21.9897142954        8.5354630504  MEMB      52              0.0000000000
      6497        52  DOPC      H7X            18.7161611690       22.4862910017        8.0568071791  MEMB      52              0.0000000000
      6498        52  DOPC      H7Y            19.8825396227       22.7340384001        9.3055594571  MEMB      52              0.0000000000
      6499        52  DOPC      C38            20.7702656753       21.7147443275        7.5830948260  MEMB      52              0.0000000000
      6500        52  DOPC      H8X            20.3665928585       21.2057257197        6.6818346061  MEMB      52              0.0000000000
      6501        52  DOPC      H8Y            21.4943844099       21.0150881270        8.0526202352  MEMB      52              0.0000000000
      6502        52  DOPC      C39            21.5511410757       22.9807034662        7.2850808225  MEMB      52              0.0000000000
      6503        52  DOPC      H9X            22.3675262561       23.0363726288        8.0202111516  MEMB      52              0.0000000000
      6504        52  DOPC      C310           21.4607266291       23.8435414308        6.2221884263  MEMB      52              0.0000000000
      6505        52  DOPC      H10X           21.9333006036       24.8230448121        6.0571214043  MEMB      52              0.0000000000
      6506        52  DOPC      C311           20.4366789696       23.7073014925        5.0736374588  MEMB      52              0.0000000000
      6507        52  DOPC      H11X           19.6280815922       24.4645525132        5.1576752445  MEMB      52              0.0000000000
      6508        52  DOPC      H11Y           19.9547909066       22.7065346284        5.0497583401  MEMB      52              0.0000000000
      6509        52  DOPC      C312           21.0960297921       23.8231565722        3.6744715321  MEMB      52              0.0000000000
      6510        52  DOPC      H12X           21.2052051917       24.8865370864        3.3717780415  MEMB      52              0.0000000000
      6511        52  DOPC      H12Y           20.3016016322       23.5147231318        2.9616780531  MEMB      52              0.0000000000
      6512        52  DOPC      C313           22.3824900103       22.9172018246        3.4798464089  MEMB      52              0.0000000000
      6513        52  DOPC      H13X           23.3084223767       23.5063346642        3.6527434064  MEMB      52              0.0000000000
      6514        52  DOPC      H13Y           22.3915324936       22.0814281800        4.2117764381  MEMB      52              0.0000000000
      6515        52  DOPC      C314           22.4080622594       22.1522312313        2.1438411332  MEMB      52              0.0000000000
      6516        52  DOPC      H14X           21.4467871278       21.5970317967        2.0988402518  MEMB      52              0.0000000000
      6517        52  DOPC      H14Y           22.3699143987       22.9417635470        1.3631330799  MEMB      52              0.0000000000
      6518        52  DOPC      C315           23.6711594776       21.3061713788        1.8376033240  MEMB      52              0.0000000000
      6519        52  DOPC      H15X           23.7643568239       20.6325903161        2.7161950488  MEMB      52              0.0000000000
      6520        52  DOPC      H15Y           24.5800403942       21.9347336595        1.9523453108  MEMB      52              0.0000000000
      6521        52  DOPC      C316           23.6746577836       20.4545161080        0.4623594489  MEMB      52              0.0000000000
      6522        52  DOPC      H16X           22.6173139105       20.1811977347        0.2582947093  MEMB      52              0.0000000000
      6523        52  DOPC      H16Y           24.0598888638       21.0609970318       -0.3850481209  MEMB      52              0.0000000000
      6524        52  DOPC      C317           24.5244535601       19.1896659269        0.5394608967  MEMB      52              0.0000000000
      6525        52  DOPC      H17X           24.5198405240       18.8753061311       -0.5261284146  MEMB      52              0.0000000000
      6526        52  DOPC      H17Y           25.5271649838       19.4972487268        0.9059075423  MEMB      52              0.0000000000
      6527        52  DOPC      C318           24.1110853848       17.9892655321        1.4405727490  MEMB      52              0.0000000000
      6528        52  DOPC      H18X           24.2247092935       18.1838420650        2.5284831948  MEMB      52              0.0000000000
      6529        52  DOPC      H18Y           23.0709723570       17.7734095700        1.1151612433  MEMB      52              0.0000000000
      6530        52  DOPC      H18Z           24.7236580156       17.0956159394        1.1946732463  MEMB      52              0.0000000000
      6531        53  23SM      N              15.1315716735      -27.4423719238       27.8415949288  MEMB      53              0.0000000000
      6532        53  23SM      C15            15.8778442675      -26.0836068715       27.7718538606  MEMB      53              0.0000000000
      6533        53  23SM      H15A           16.4435304583      -25.9847897170       28.6865310948  MEMB      53              0.0000000000
      6534        53  23SM      H15B           15.1934648369      -25.2481403287       27.7673383901  MEMB      53              0.0000000000
      6535        53  23SM      H15C           16.4816765545      -26.0468985883       26.8771812126  MEMB      53              0.0000000000
      6536        53  23SM      C14            16.1727566186      -28.5020911985       28.1138308827  MEMB      53              0.0000000000
      6537        53  23SM      H14A           16.5282781151      -28.4276800640       29.1309186324  MEMB      53              0.0000000000
      6538        53  23SM      H14B           17.0237332403      -28.3691232836       27.4622494313  MEMB      53              0.0000000000
      6539        53  23SM      H14C           15.6996560010      -29.4554769101       27.9304415405  MEMB      53              0.0000000000
      6540        53  23SM      C13            14.1110004742      -27.4135269544       28.9865110491  MEMB      53              0.0000000000
      6541        53  23SM      H13A           14.5705089661      -27.5821443733       29.9492259881  MEMB      53              0.0000000000
      6542        53  23SM      H13B           13.3126506752      -28.1388306415       28.9319943104  MEMB      53              0.0000000000
      6543        53  23SM      H13C           13.6988822450      -26.4161798472       28.9434144766  MEMB      53              0.0000000000
      6544        53  23SM      C12            14.3751147501      -27.7598539137       26.5618399677  MEMB      53              0.0000000000
      6545        53  23SM      H12A           13.8244475380      -26.8358954684       26.4645446857  MEMB      53              0.0000000000
      6546        53  23SM      H12B           13.7798383266      -28.6468859198       26.7206485230  MEMB      53              0.0000000000
      6547        53  23SM      C11            15.2241292620      -28.1714596374       25.3138977525  MEMB      53              0.0000000000
      6548        53  23SM      H11A           14.5641813071      -28.4199242434       24.4553786547  MEMB      53              0.0000000000
      6549        53  23SM      H11B           15.9714571739      -28.9399290303       25.6059194338  MEMB      53              0.0000000000
      6550        53  23SM      P              15.2862146308      -25.6973696752       24.3490474714  MEMB      53              0.0000000000
      6551        53  23SM      O13            13.8409323782      -25.9830429842       24.0460744696  MEMB      53              0.0000000000
      6552        53  23SM      O14            15.5365365025      -24.5659902736       25.2283979304  MEMB      53              0.0000000000
      6553        53  23SM      O11            16.0183754107      -25.4255041098       22.9405449409  MEMB      53              0.0000000000
      6554        53  23SM      O12            16.0171548331      -27.0451808531       24.8464067495  MEMB      53              0.0000000000
      6555        53  23SM      C1S            15.9880765940      -26.4968395729       22.0394526838  MEMB      53              0.0000000000
      6556        53  23SM      H1S            15.2839187965      -27.3067617766       22.3266959766  MEMB      53              0.0000000000
      6557        53  23SM      H1T            17.0152996807      -26.9155573251       21.9777335774  MEMB      53              0.0000000000
      6558        53  23SM      NF             15.7648463035      -27.2395185978       19.6279841111  MEMB      53              0.0000000000
      6559        53  23SM      HNF            16.5140170461      -27.1293568377       18.9794346783  MEMB      53              0.0000000000
      6560        53  23SM      C2S            15.5096137511      -26.1307420462       20.5567594889  MEMB      53              0.0000000000
      6561        53  23SM      H2S            14.4072751327      -25.9995754058       20.6010971794  MEMB      53              0.0000000000
      6562        53  23SM      C3S            16.2302578796      -24.8245689547       20.1116023418  MEMB      53              0.0000000000
      6563        53  23SM      H3S            17.3281324157      -24.9948404065       20.1116715935  MEMB      53              0.0000000000
      6564        53  23SM      O3             15.9400116425      -23.6124056099       20.8002976469  MEMB      53              0.0000000000
      6565        53  23SM      HO3            15.3524097097      -23.9024753626       21.5018557324  MEMB      53              0.0000000000
      6566        53  23SM      C4S            15.8938762298      -24.6173405340       18.6661215968  MEMB      53              0.0000000000
      6567        53  23SM      H4S            16.7625515106      -24.5909525080       17.9918022033  MEMB      53              0.0000000000
      6568        53  23SM      C5S            14.6263536069      -24.3107472930       18.1533194210  MEMB      53              0.0000000000
      6569        53  23SM      H5S            13.7942713873      -24.2705846590       18.8716688717  MEMB      53              0.0000000000
      6570        53  23SM      C6S            14.3495087904      -24.0895549506       16.6346259313  MEMB      53              0.0000000000
      6571        53  23SM      H6S            14.0220015095      -23.0359778802       16.5041066037  MEMB      53              0.0000000000
      6572        53  23SM      H6T            13.4332506491      -24.6605239277       16.3723541926  MEMB      53              0.0000000000
      6573        53  23SM      C7S            15.4174724898      -24.2544606393       15.6304154997  MEMB      53              0.0000000000
      6574        53  23SM      H7S            15.7848037627      -25.3029362199       15.6210618798  MEMB      53              0.0000000000
      6575        53  23SM      H7T            16.3758308006      -23.7096241671       15.7683423089  MEMB      53              0.0000000000
      6576        53  23SM      C8S            14.9030383423      -23.7214240667       14.2176929799  MEMB      53              0.0000000000
      6577        53  23SM      H8S            14.8014500608      -22.6223282950       14.3441422992  MEMB      53              0.0000000000
      6578        53  23SM      H8T            13.9799165539      -24.2924253944       13.9807872086  MEMB      53              0.0000000000
      6579        53  23SM      C9S            15.9192794876      -23.8062166307       13.0592717474  MEMB      53              0.0000000000
      6580        53  23SM      H9S            16.8691413260      -23.3076771515       13.3483072227  MEMB      53              0.0000000000
      6581        53  23SM      H9T            15.4711791185      -23.1946560932       12.2471628119  MEMB      53              0.0000000000
      6582        53  23SM      C10S           16.0766426518      -25.2129885152       12.6116395638  MEMB      53              0.0000000000
      6583        53  23SM      H10S           15.1973296500      -25.8919763755       12.6218958427  MEMB      53              0.0000000000
      6584        53  23SM      H10T           16.7085411840      -25.7449896021       13.3546066655  MEMB      53              0.0000000000
      6585        53  23SM      C11S           16.9294985881      -25.2924676859       11.3211900671  MEMB      53              0.0000000000
      6586        53  23SM      H11S           16.9035338686      -26.3695734999       11.0500994610  MEMB      53              0.0000000000
      6587        53  23SM      H11T           17.9669659633      -24.9201436582       11.4603196345  MEMB      53              0.0000000000
      6588        53  23SM      C12S           16.2453037857      -24.6297943225       10.0716552877  MEMB      53              0.0000000000
      6589        53  23SM      H12S           16.5087665975      -23.5608112722        9.9227145266  MEMB      53              0.0000000000
      6590        53  23SM      H12T           15.1721974788      -24.8198207868       10.2876500974  MEMB      53              0.0000000000
      6591        53  23SM      C13S           16.7607064807      -25.3560656770        8.8042450509  MEMB      53              0.0000000000
      6592        53  23SM      H13S           16.1582208318      -24.9834900194        7.9483731032  MEMB      53              0.0000000000
      6593        53  23SM      H13T           16.5108381294      -26.4338176720        8.9059174060  MEMB      53              0.0000000000
      6594        53  23SM      C14S           18.3110236156      -25.2038385111        8.4572491583  MEMB      53              0.0000000000
      6595        53  23SM      H14S           18.8259607332      -25.8452795414        9.2040523715  MEMB      53              0.0000000000
      6596        53  23SM      H14T           18.6889052970      -24.1664150645        8.5808585487  MEMB      53              0.0000000000
      6597        53  23SM      C15S           18.8568568081      -25.8356660438        7.0692721314  MEMB      53              0.0000000000
      6598        53  23SM      H15S           18.7405382992      -26.9400824825        7.0367885270  MEMB      53              0.0000000000
      6599        53  23SM      H15T           19.9593095299      -25.7084477198        7.0169724521  MEMB      53              0.0000000000
      6600        53  23SM      C16S           18.2668201845      -25.1739985554        5.8320823970  MEMB      53              0.0000000000
      6601        53  23SM      H16S           18.4496989851      -24.0781536944        5.8326446999  MEMB      53              0.0000000000
      6602        53  23SM      H16T           17.1634348270      -25.2924880673        5.8852076436  MEMB      53              0.0000000000
      6603        53  23SM      C17S           18.7677156672      -25.6897828480        4.4695824781  MEMB      53              0.0000000000
      6604        53  23SM      H17S           18.9741574067      -26.7672692626        4.6448702686  MEMB      53              0.0000000000
      6605        53  23SM      H17T           19.7402226046      -25.1927485790        4.2658483998  MEMB      53              0.0000000000
      6606        53  23SM      C18S           17.7570675159      -25.3561051492        3.2900441420  MEMB      53              0.0000000000
      6607        53  23SM      H18S           17.5244510453      -24.2840232733        3.1144000219  MEMB      53              0.0000000000
      6608        53  23SM      H18T           16.7656233821      -25.8433179347        3.4082950876  MEMB      53              0.0000000000
      6609        53  23SM      H18U           18.1987674295      -25.7018759608        2.3310534433  MEMB      53              0.0000000000
      6610        53  23SM      C1F            15.0910372150      -28.4613482188       19.7411043484  MEMB      53              0.0000000000
      6611        53  23SM      OF             14.1612318727      -28.6714338610       20.5960527737  MEMB      53              0.0000000000
      6612        53  23SM      C2F            15.5264529223      -29.6420252020       18.9543111663  MEMB      53              0.0000000000
      6613        53  23SM      H2F            15.9930888996      -30.3548548442       19.6673653888  MEMB      53              0.0000000000
      6614        53  23SM      H2G            16.3289655946      -29.3435383454       18.2463563957  MEMB      53              0.0000000000
      6615        53  23SM      C3F            14.3954753819      -30.2917025853       18.1589457075  MEMB      53              0.0000000000
      6616        53  23SM      H3F            13.8275069287      -30.7494725976       18.9969069449  MEMB      53              0.0000000000
      6617        53  23SM      H3G            14.9253025363      -31.0265183724       17.5157889470  MEMB      53              0.0000000000
      6618        53  23SM      C4F            13.5371454370      -29.3349032721       17.3877243396  MEMB      53              0.0000000000
      6619        53  23SM      H4F            14.2641693881      -28.7900724848       16.7482591433  MEMB      53              0.0000000000
      6620        53  23SM      H4G            12.9703236589      -28.6303509956       18.0332010743  MEMB      53              0.0000000000
      6621        53  23SM      C5F            12.4778487954      -30.0213678206       16.5165392005  MEMB      53              0.0000000000
      6622        53  23SM      H5F            11.5162738306      -29.5277130291       16.7734433697  MEMB      53              0.0000000000
      6623        53  23SM      H5G            12.3184339104      -31.0902116260       16.7743793251  MEMB      53              0.0000000000
      6624        53  23SM      C6F            12.8415129902      -29.9594363379       15.0542618858  MEMB      53              0.0000000000
      6625        53  23SM      H6F            12.0917400363      -30.6102369047       14.5556437248  MEMB      53              0.0000000000
      6626        53  23SM      H6G            13.8646571305      -30.3430103348       14.8533437926  MEMB      53              0.0000000000
      6627        53  23SM      C7F            12.7274140060      -28.5355125706       14.3104571442  MEMB      53              0.0000000000
      6628        53  23SM      H7F            12.9805847390      -28.8632885241       13.2795415982  MEMB      53              0.0000000000
      6629        53  23SM      H7G            13.5042142503      -27.8959492283       14.7814790320  MEMB      53              0.0000000000
      6630        53  23SM      C8F            11.4076013749      -27.8230522116       14.3003305717  MEMB      53              0.0000000000
      6631        53  23SM      H8F            10.8758781036      -27.9909032566       15.2612767013  MEMB      53              0.0000000000
      6632        53  23SM      H8G            10.8789482535      -28.4236135976       13.5295043259  MEMB      53              0.0000000000
      6633        53  23SM      C9F            11.5098978661      -26.3183544109       13.9802713049  MEMB      53              0.0000000000
      6634        53  23SM      H9F            12.0469814412      -25.8157392252       14.8128815673  MEMB      53              0.0000000000
      6635        53  23SM      H9G            10.5174549994      -25.8212369771       13.9328105257  MEMB      53              0.0000000000
      6636        53  23SM      C10F           12.1252516399      -25.9759659266       12.6888512752  MEMB      53              0.0000000000
      6637        53  23SM      H10F           13.1745167171      -26.3352582411       12.7542164911  MEMB      53              0.0000000000
      6638        53  23SM      H10G           12.1333780983      -24.8677719361       12.6103597539  MEMB      53              0.0000000000
      6639        53  23SM      C11F           11.3424349933      -26.4672988082       11.5103382384  MEMB      53              0.0000000000
      6640        53  23SM      H11F           10.4122579720      -25.8635253191       11.4428940929  MEMB      53              0.0000000000
      6641        53  23SM      H11G           10.9807379800      -27.5154355633       11.5803806417  MEMB      53              0.0000000000
      6642        53  23SM      C12F           11.9802768062      -26.2043664413       10.1092964520  MEMB      53              0.0000000000
      6643        53  23SM      H12F           12.5392295989      -25.2448075273       10.0755392545  MEMB      53              0.0000000000
      6644        53  23SM      H12G           11.1923783824      -26.1463816289        9.3281596012  MEMB      53              0.0000000000
      6645        53  23SM      C13F           13.0069296840      -27.2328193545        9.7312945382  MEMB      53              0.0000000000
      6646        53  23SM      H13F           12.5015346561      -28.2068969916        9.9047000541  MEMB      53              0.0000000000
      6647        53  23SM      H13G           13.8307215441      -27.1494483804       10.4720628540  MEMB      53              0.0000000000
      6648        53  23SM      C14F           13.5409626281      -27.2722431508        8.2683271364  MEMB      53              0.0000000000
      6649        53  23SM      H14F           13.9880757455      -26.2959864064        7.9831355848  MEMB      53              0.0000000000
      6650        53  23SM      H14G           12.6165642332      -27.3746565256        7.6606102280  MEMB      53              0.0000000000
      6651        53  23SM      C15F           14.4396109401      -28.4346789421        7.8814065237  MEMB      53              0.0000000000
      6652        53  23SM      H15F           13.9475442489      -29.4284238714        7.9496891297  MEMB      53              0.0000000000
      6653        53  23SM      H15G           15.3012577665      -28.3868955588        8.5811223565  MEMB      53              0.0000000000
      6654        53  23SM      C16F           15.0640781995      -28.2752863070        6.4805476437  MEMB      53              0.0000000000
      6655        53  23SM      H16F           15.9667059825      -27.6281232924        6.5081921010  MEMB      53              0.0000000000
      6656        53  23SM      H16G           14.3944859316      -27.6633197038        5.8390940147  MEMB      53              0.0000000000
      6657        53  23SM      C17F           15.2842005246      -29.5462248043        5.6481729137  MEMB      53              0.0000000000
      6658        53  23SM      H17F           14.3567809431      -30.0921395398        5.3721461530  MEMB      53              0.0000000000
      6659        53  23SM      H17G           15.7958818106      -30.2397352689        6.3492769300  MEMB      53              0.0000000000
      6660        53  23SM      C18F           16.1503382013      -29.4964539754        4.3468095630  MEMB      53              0.0000000000
      6661        53  23SM      H18F           16.4738746307      -30.4714159777        3.9236130233  MEMB      53              0.0000000000
      6662        53  23SM      H18G           17.0741278120      -28.9203195868        4.5681762540  MEMB      53              0.0000000000
      6663        53  23SM      C19F           15.3284834586      -28.7545569922        3.2141964188  MEMB      53              0.0000000000
      6664        53  23SM      H19F           15.2866961184      -27.7499151426        3.6867108979  MEMB      53              0.0000000000
      6665        53  23SM      H19G           14.3073083589      -29.1801956550        3.1124405789  MEMB      53              0.0000000000
      6666        53  23SM      C20F           16.0787587123      -28.6783719491        1.8836042734  MEMB      53              0.0000000000
      6667        53  23SM      H20F           17.1278116806      -28.3596535226        2.0631232671  MEMB      53              0.0000000000
      6668        53  23SM      H20G           15.6194656915      -27.8467667158        1.3075802135  MEMB      53              0.0000000000
      6669        53  23SM      C21F           16.0391062696      -29.8349080918        0.8571853292  MEMB      53              0.0000000000
      6670        53  23SM      H21F           16.7573436710      -29.5513595877        0.0584014743  MEMB      53              0.0000000000
      6671        53  23SM      H21G           15.0001625052      -29.8524084157        0.4639792727  MEMB      53              0.0000000000
      6672        53  23SM      C22F           16.5902691150      -31.2059077910        1.2654452296  MEMB      53              0.0000000000
      6673        53  23SM      H22F           16.1919407709      -31.5192378073        2.2541197852  MEMB      53              0.0000000000
      6674        53  23SM      H22G           17.6713909955      -31.1060815276        1.5010958058  MEMB      53              0.0000000000
      6675        53  23SM      C23F           16.5508938697      -32.2184949410        0.1603044268  MEMB      53              0.0000000000
      6676        53  23SM      H23F           16.9154061962      -31.8685940629       -0.8291509526  MEMB      53              0.0000000000
      6677        53  23SM      H23G           15.5478340261      -32.6345510210       -0.0744070360  MEMB      53              0.0000000000
      6678        53  23SM      H23H           17.2287250541      -33.0404524529        0.4753469678  MEMB      53              0.0000000000
      6679        54  DOPC      N              21.6030454956      -20.1004681505       19.5328324482  MEMB      54              0.0000000000
      6680        54  DOPC      C12            22.1184294897      -20.7655704931       18.2633638453  MEMB      54              0.0000000000
      6681        54  DOPC      H12A           22.8932921847      -20.1328091547       17.8564229668  MEMB      54              0.0000000000
      6682        54  DOPC      H12B           21.2361431836      -20.6499942094       17.6513074998  MEMB      54              0.0000000000
      6683        54  DOPC      C13            22.5225091491      -20.4418497377       20.7360889006  MEMB      54              0.0000000000
      6684        54  DOPC      H13A           23.5205939072      -20.0969385089       20.5096756978  MEMB      54              0.0000000000
      6685        54  DOPC      H13B           22.0889913231      -19.8656359879       21.5401036039  MEMB      54              0.0000000000
      6686        54  DOPC      H13C           22.6049112030      -21.4891925594       20.9864546416  MEMB      54              0.0000000000
      6687        54  DOPC      C14            20.1435792719      -20.3526318437       19.7301453564  MEMB      54              0.0000000000
      6688        54  DOPC      H14A           19.9609446765      -21.3430523528       20.1201605792  MEMB      54              0.0000000000
      6689        54  DOPC      H14B           19.6802099746      -19.7067410250       20.4612500115  MEMB      54              0.0000000000
      6690        54  DOPC      H14C           19.7079493976      -20.3280364691       18.7422072740  MEMB      54              0.0000000000
      6691        54  DOPC      C15            21.6949371644      -18.6240447624       19.1923246107  MEMB      54              0.0000000000
      6692        54  DOPC      H15A           21.3489772810      -18.6440070977       18.1694300819  MEMB      54              0.0000000000
      6693        54  DOPC      H15B           22.7054699057      -18.2588027297       19.3010528634  MEMB      54              0.0000000000
      6694        54  DOPC      H15C           21.2196158203      -18.0490787012       19.9732749997  MEMB      54              0.0000000000
      6695        54  DOPC      C11            22.6282131740      -22.2192933471       18.3858233470  MEMB      54              0.0000000000
      6696        54  DOPC      H11A           22.8453861405      -22.6265509866       17.3752304602  MEMB      54              0.0000000000
      6697        54  DOPC      H11B           23.5906357578      -22.2027941639       18.9406129637  MEMB      54              0.0000000000
      6698        54  DOPC      P              21.8488615766      -24.5987033283       18.7282584093  MEMB      54              0.0000000000
      6699        54  DOPC      O13            20.6412527419      -25.2986355651       19.2275738646  MEMB      54              0.0000000000
      6700        54  DOPC      O14            23.2229973616      -24.9960790032       19.1504640736  MEMB      54              0.0000000000
      6701        54  DOPC      O12            21.6830845463      -23.0426575054       18.9440130800  MEMB      54              0.0000000000
      6702        54  DOPC      O11            21.8215282270      -24.7288252604       17.1091120609  MEMB      54              0.0000000000
      6703        54  DOPC      C1             20.5995617862      -24.3559409072       16.5702874288  MEMB      54              0.0000000000
      6704        54  DOPC      HA             20.6244159870      -23.2625984408       16.3745694491  MEMB      54              0.0000000000
      6705        54  DOPC      HB             19.7016370414      -24.6602881323       17.1494463261  MEMB      54              0.0000000000
      6706        54  DOPC      C2             20.5352557517      -24.9671151326       15.1924510443  MEMB      54              0.0000000000
      6707        54  DOPC      HS             20.4875577586      -26.0754869319       15.2521004758  MEMB      54              0.0000000000
      6708        54  DOPC      O21            21.7336258931      -24.6876092136       14.3825279223  MEMB      54              0.0000000000
      6709        54  DOPC      C21            21.8811443987      -25.4227920878       13.3424881648  MEMB      54              0.0000000000
      6710        54  DOPC      O22            21.2985849777      -26.5004540367       13.1466870413  MEMB      54              0.0000000000
      6711        54  DOPC      C22            22.9690998064      -24.8193725570       12.4917628759  MEMB      54              0.0000000000
      6712        54  DOPC      H2R            23.8858178493      -25.3119604434       12.8807438644  MEMB      54              0.0000000000
      6713        54  DOPC      H2S            23.1236920875      -23.7308293245       12.6514367823  MEMB      54              0.0000000000
      6714        54  DOPC      C3             19.3009015257      -24.3828277980       14.3941819525  MEMB      54              0.0000000000
      6715        54  DOPC      HX             18.4676592376      -24.5803574545       15.1020029508  MEMB      54              0.0000000000
      6716        54  DOPC      HY             19.1404219821      -24.8791605088       13.4132530753  MEMB      54              0.0000000000
      6717        54  DOPC      O31            19.3636820112      -22.9342841911       14.3284424058  MEMB      54              0.0000000000
      6718        54  DOPC      C31            18.2224999684      -22.2797123902       14.1784122263  MEMB      54              0.0000000000
      6719        54  DOPC      O32            17.1475011480      -22.7714733494       14.0816484993  MEMB      54              0.0000000000
      6720        54  DOPC      C32            18.4856773519      -20.7342042383       14.2407886500  MEMB      54              0.0000000000
      6721        54  DOPC      H2X            18.8492924184      -20.5090975187       13.2153950642  MEMB      54              0.0000000000
      6722        54  DOPC      H2Y            17.5372541041      -20.1797714946       14.4063747102  MEMB      54              0.0000000000
      6723        54  DOPC      C23            22.8010205338      -25.0007983118       10.9654319065  MEMB      54              0.0000000000
      6724        54  DOPC      H3R            22.4103411369      -26.0231790054       10.7745708893  MEMB      54              0.0000000000
      6725        54  DOPC      H3S            23.7503293482      -24.8627988808       10.4049944808  MEMB      54              0.0000000000
      6726        54  DOPC      C24            21.7055797124      -24.0167998867       10.4689063300  MEMB      54              0.0000000000
      6727        54  DOPC      H4R            21.5932821540      -23.1182803663       11.1126244757  MEMB      54              0.0000000000
      6728        54  DOPC      H4S            20.7454095394      -24.5757195326       10.4671542353  MEMB      54              0.0000000000
      6729        54  DOPC      C25            21.8576833822      -23.6497074698        8.9731438735  MEMB      54              0.0000000000
      6730        54  DOPC      H5R            21.7558896878      -24.6139341047        8.4307177252  MEMB      54              0.0000000000
      6731        54  DOPC      H5S            22.8909442555      -23.2671135310        8.8306136951  MEMB      54              0.0000000000
      6732        54  DOPC      C26            20.7726715918      -22.7533072570        8.4007107280  MEMB      54              0.0000000000
      6733        54  DOPC      H6R            21.2699324272      -22.6042351697        7.4184526285  MEMB      54              0.0000000000
      6734        54  DOPC      H6S            20.8028840501      -21.7731260600        8.9228720138  MEMB      54              0.0000000000
      6735        54  DOPC      C27            19.3156965748      -23.1911056932        8.3297554977  MEMB      54              0.0000000000
      6736        54  DOPC      H7R            18.6679707420      -22.3261234612        8.0717280666  MEMB      54              0.0000000000
      6737        54  DOPC      H7S            19.0455223692      -23.3487062795        9.3958176079  MEMB      54              0.0000000000
      6738        54  DOPC      C28            19.1576196784      -24.2265003527        7.2401876112  MEMB      54              0.0000000000
      6739        54  DOPC      H8R            19.7176438324      -25.1826662912        7.3204394390  MEMB      54              0.0000000000
      6740        54  DOPC      H8S            19.4215337000      -23.8223425717        6.2395241528  MEMB      54              0.0000000000
      6741        54  DOPC      C29            17.6862555920      -24.7048447747        7.2516462948  MEMB      54              0.0000000000
      6742        54  DOPC      H9R            17.4903278954      -25.5222028297        7.9612510372  MEMB      54              0.0000000000
      6743        54  DOPC      C210           16.7468376426      -24.3419738486        6.4305506187  MEMB      54              0.0000000000
      6744        54  DOPC      H10R           15.7565302114      -24.7345976223        6.7046635755  MEMB      54              0.0000000000
      6745        54  DOPC      C211           16.9321995069      -23.4040766222        5.2400554550  MEMB      54              0.0000000000
      6746        54  DOPC      H11R           17.9768660011      -23.0384379863        5.1436103757  MEMB      54              0.0000000000
      6747        54  DOPC      H11S           16.2527665900      -22.5342842932        5.3671509311  MEMB      54              0.0000000000
      6748        54  DOPC      C212           16.4262257124      -23.9109900967        3.9133263138  MEMB      54              0.0000000000
      6749        54  DOPC      H12R           16.5495648371      -23.0943527130        3.1702159202  MEMB      54              0.0000000000
      6750        54  DOPC      H12S           15.3733982475      -24.1865083081        4.1368555390  MEMB      54              0.0000000000
      6751        54  DOPC      C213           17.1825518190      -25.1327418229        3.3375904348  MEMB      54              0.0000000000
      6752        54  DOPC      H13R           16.6734339753      -25.6874649279        2.5206435680  MEMB      54              0.0000000000
      6753        54  DOPC      H13S           17.4827133038      -25.8751809584        4.1076603801  MEMB      54              0.0000000000
      6754        54  DOPC      C214           18.4222543698      -24.7809151493        2.5177810228  MEMB      54              0.0000000000
      6755        54  DOPC      H14R           19.1446785082      -24.2125046511        3.1417462239  MEMB      54              0.0000000000
      6756        54  DOPC      H14S           18.1128953715      -24.1781423396        1.6372791326  MEMB      54              0.0000000000
      6757        54  DOPC      C215           19.1700889073      -26.0150832598        1.9834638750  MEMB      54              0.0000000000
      6758        54  DOPC      H15R           18.6099585075      -26.6436203481        1.2585378410  MEMB      54              0.0000000000
      6759        54  DOPC      H15S           19.3710043822      -26.5968327377        2.9084067783  MEMB      54              0.0000000000
      6760        54  DOPC      C216           20.5759307874      -25.8653184727        1.3551663304  MEMB      54              0.0000000000
      6761        54  DOPC      H16R           21.1732342814      -25.1376741755        1.9451515168  MEMB      54              0.0000000000
      6762        54  DOPC      H16S           20.4373090141      -25.5114946462        0.3111776957  MEMB      54              0.0000000000
      6763        54  DOPC      C217           21.4318423994      -27.0997780605        1.2183711999  MEMB      54              0.0000000000
      6764        54  DOPC      H17R           21.0372892828      -27.6952547927        0.3674564002  MEMB      54              0.0000000000
      6765        54  DOPC      H17S           21.5070230804      -27.6944287588        2.1538165075  MEMB      54              0.0000000000
      6766        54  DOPC      C218           22.8020069254      -26.8123553826        0.5695372912  MEMB      54              0.0000000000
      6767        54  DOPC      H18R           23.5200542681      -27.6370263397        0.3729492763  MEMB      54              0.0000000000
      6768        54  DOPC      H18S           23.3689936202      -25.9959238528        1.0658090442  MEMB      54              0.0000000000
      6769        54  DOPC      H18T           22.5852128376      -26.4273015586       -0.4498035155  MEMB      54              0.0000000000
      6770        54  DOPC      C33            19.5983245644      -20.3464167425       15.2920146949  MEMB      54              0.0000000000
      6771        54  DOPC      H3X            20.5072071867      -20.9617339254       15.1198569562  MEMB      54              0.0000000000
      6772        54  DOPC      H3Y            19.1289197603      -20.7486238963       16.2151664788  MEMB      54              0.0000000000
      6773        54  DOPC      C34            19.9192405083      -18.8545646990       15.4099872449  MEMB      54              0.0000000000
      6774        54  DOPC      H4X            20.8196591208      -18.7455256310       16.0516085071  MEMB      54              0.0000000000
      6775        54  DOPC      H4Y            19.0631493229      -18.3423278310       15.8989067225  MEMB      54              0.0000000000
      6776        54  DOPC      C35            20.0722552201      -18.1625996873       14.0052343961  MEMB      54              0.0000000000
      6777        54  DOPC      H5X            20.1525704581      -17.0547283452       14.0273927884  MEMB      54              0.0000000000
      6778        54  DOPC      H5Y            19.1474768156      -18.3815910608       13.4297794499  MEMB      54              0.0000000000
      6779        54  DOPC      C36            21.2686532844      -18.7791143916       13.3520892495  MEMB      54              0.0000000000
      6780        54  DOPC      H6X            22.0422443777      -18.7672248784       14.1494203201  MEMB      54              0.0000000000
      6781        54  DOPC      H6Y            21.1097716806      -19.8519574976       13.1110794563  MEMB      54              0.0000000000
      6782        54  DOPC      C37            21.7298475963      -17.9935694408       12.0812585384  MEMB      54              0.0000000000
      6783        54  DOPC      H7X            22.3020937594      -17.0846505637       12.3653733074  MEMB      54              0.0000000000
      6784        54  DOPC      H7Y            22.4065491729      -18.6171075327       11.4586858694  MEMB      54              0.0000000000
      6785        54  DOPC      C38            20.6297731919      -17.5603196691       11.1366493571  MEMB      54              0.0000000000
      6786        54  DOPC      H8X            21.1051267752      -16.9253847279       10.3586917197  MEMB      54              0.0000000000
      6787        54  DOPC      H8Y            19.7730612231      -17.1178690745       11.6885576900  MEMB      54              0.0000000000
      6788        54  DOPC      C39            19.9590638198      -18.7677072308       10.5074441121  MEMB      54              0.0000000000
      6789        54  DOPC      H9X            19.6499269174      -19.5461670292       11.2204902707  MEMB      54              0.0000000000
      6790        54  DOPC      C310           19.7917658643      -19.0223780384        9.1789720169  MEMB      54              0.0000000000
      6791        54  DOPC      H10X           19.2298637547      -19.9126040514        8.8599675330  MEMB      54              0.0000000000
      6792        54  DOPC      C311           20.2896961406      -18.1145070978        8.0703308974  MEMB      54              0.0000000000
      6793        54  DOPC      H11X           21.2154562528      -17.5668939117        8.3485558131  MEMB      54              0.0000000000
      6794        54  DOPC      H11Y           19.4509342849      -17.4190144686        7.8533294157  MEMB      54              0.0000000000
      6795        54  DOPC      C312           20.6587104734      -18.8269024575        6.7621596059  MEMB      54              0.0000000000
      6796        54  DOPC      H12X           21.7152572570      -19.1703917079        6.7554498310  MEMB      54              0.0000000000
      6797        54  DOPC      H12Y           20.7377155210      -18.0112074550        6.0120119526  MEMB      54              0.0000000000
      6798        54  DOPC      C313           19.6491481166      -19.7742435555        6.1778224294  MEMB      54              0.0000000000
      6799        54  DOPC      H13X           19.5500237999      -20.7360091893        6.7250904836  MEMB      54              0.0000000000
      6800        54  DOPC      H13Y           18.6325300712      -19.3470879169        6.3132735127  MEMB      54              0.0000000000
      6801        54  DOPC      C314           19.7013235291      -20.0311128644        4.6546030890  MEMB      54              0.0000000000
      6802        54  DOPC      H14X           18.8855448500      -20.6695493697        4.2530743709  MEMB      54              0.0000000000
      6803        54  DOPC      H14Y           19.8134029314      -19.0825365341        4.0871861552  MEMB      54              0.0000000000
      6804        54  DOPC      C315           20.9668971420      -20.8412540623        4.3782906678  MEMB      54              0.0000000000
      6805        54  DOPC      H15X           21.1146145493      -21.5673589145        5.2061026457  MEMB      54              0.0000000000
      6806        54  DOPC      H15Y           21.7988335820      -20.1050239216        4.3912533670  MEMB      54              0.0000000000
      6807        54  DOPC      C316           21.0137026103      -21.5393385532        2.9765809245  MEMB      54              0.0000000000
      6808        54  DOPC      H16X           20.1460647626      -22.2317442489        2.9307545714  MEMB      54              0.0000000000
      6809        54  DOPC      H16Y           20.8538724437      -20.6356765106        2.3503461420  MEMB      54              0.0000000000
      6810        54  DOPC      C317           22.3007198415      -22.2053305820        2.5220684051  MEMB      54              0.0000000000
      6811        54  DOPC      H17X           23.2322594100      -21.6400681402        2.7389421801  MEMB      54              0.0000000000
      6812        54  DOPC      H17Y           22.4411202948      -23.1377690152        3.1095779737  MEMB      54              0.0000000000
      6813        54  DOPC      C318           22.4087710933      -22.5212754439        1.0395175163  MEMB      54              0.0000000000
      6814        54  DOPC      H18X           21.5405388322      -23.0926192248        0.6470119432  MEMB      54              0.0000000000
      6815        54  DOPC      H18Y           22.4207159784      -21.5863425625        0.4394522317  MEMB      54              0.0000000000
      6816        54  DOPC      H18Z           23.3735506616      -23.0167486298        0.7986280559  MEMB      54              0.0000000000
      6817        55  CHL1      C3             -5.5451835148      -31.4819504361       17.4728800000  MEMB      55              0.0000000000
      6818        55  CHL1      H3             -6.0272181426      -32.4429880025       17.7528500000  MEMB      55              0.0000000000
      6819        55  CHL1      O3             -5.6468308052      -30.5983455639       18.5271200000  MEMB      55              0.0000000000
      6820        55  CHL1      H3'            -5.0637892094      -30.9268183648       19.2154300000  MEMB      55              0.0000000000
      6821        55  CHL1      C4             -4.0874393791      -31.8914658713       17.1971800000  MEMB      55              0.0000000000
      6822        55  CHL1      H4A            -3.5079379414      -30.9437953897       17.1770100000  MEMB      55              0.0000000000
      6823        55  CHL1      H4B            -3.5315459844      -32.3434208206       18.0463300000  MEMB      55              0.0000000000
      6824        55  CHL1      C5             -3.9109781397      -32.6725523128       15.8700700000  MEMB      55              0.0000000000
      6825        55  CHL1      C6             -3.3592303617      -33.8872641065       15.8451600000  MEMB      55              0.0000000000
      6826        55  CHL1      H6             -3.1254220501      -34.3457711341       16.8173300000  MEMB      55              0.0000000000
      6827        55  CHL1      C7             -2.9779135253      -34.6368107811       14.6072500000  MEMB      55              0.0000000000
      6828        55  CHL1      H7A            -1.9373495342      -35.0126615896       14.7086400000  MEMB      55              0.0000000000
      6829        55  CHL1      H7B            -3.6844269001      -35.4929874861       14.5611600000  MEMB      55              0.0000000000
      6830        55  CHL1      C8             -3.1677676848      -33.8566811525       13.3411100000  MEMB      55              0.0000000000
      6831        55  CHL1      H8             -2.2769515751      -33.1953080560       13.3990300000  MEMB      55              0.0000000000
      6832        55  CHL1      C14            -3.2560385076      -34.7424248786       12.1881700000  MEMB      55              0.0000000000
      6833        55  CHL1      H14            -4.2234968602      -35.2869951643       12.2306800000  MEMB      55              0.0000000000
      6834        55  CHL1      C15            -2.0941270308      -35.6936511689       12.1163300000  MEMB      55              0.0000000000
      6835        55  CHL1      H15A           -1.1299669264      -35.1691337323       12.2883700000  MEMB      55              0.0000000000
      6836        55  CHL1      H15B           -2.1833314410      -36.4731442775       12.9029300000  MEMB      55              0.0000000000
      6837        55  CHL1      C16            -2.1381357312      -36.1281983956       10.6050600000  MEMB      55              0.0000000000
      6838        55  CHL1      H16A           -1.1013035966      -35.9676605785       10.2396500000  MEMB      55              0.0000000000
      6839        55  CHL1      H16B           -2.5665578831      -37.1418263968       10.4522400000  MEMB      55              0.0000000000
      6840        55  CHL1      C17            -3.0802160263      -35.0903929576        9.8621800000  MEMB      55              0.0000000000
      6841        55  CHL1      H17            -3.9988563722      -35.7025098495        9.7367200000  MEMB      55              0.0000000000
      6842        55  CHL1      C13            -3.2336728118      -33.9707727370       10.7690100000  MEMB      55              0.0000000000
      6843        55  CHL1      C18            -1.9951855239      -33.0165087447       10.6398000000  MEMB      55              0.0000000000
      6844        55  CHL1      H18A           -2.0583368608      -32.5254852538        9.6452000000  MEMB      55              0.0000000000
      6845        55  CHL1      H18B           -2.0593920381      -32.2220184998       11.4137400000  MEMB      55              0.0000000000
      6846        55  CHL1      H18C           -1.0138508791      -33.5369938889       10.6598500000  MEMB      55              0.0000000000
      6847        55  CHL1      C12            -4.5823462741      -33.1856109389       10.7700500000  MEMB      55              0.0000000000
      6848        55  CHL1      H12A           -4.8770419648      -32.4899215907        9.9555100000  MEMB      55              0.0000000000
      6849        55  CHL1      H12B           -5.4317042425      -33.8919110797       10.6515300000  MEMB      55              0.0000000000
      6850        55  CHL1      C11            -4.8717888414      -32.3073661109       12.0461200000  MEMB      55              0.0000000000
      6851        55  CHL1      H11A           -4.1447625682      -31.4782283482       11.9109300000  MEMB      55              0.0000000000
      6852        55  CHL1      H11B           -5.8286756245      -31.7504061856       12.1382800000  MEMB      55              0.0000000000
      6853        55  CHL1      C9             -4.4745372567      -32.9686463236       13.4263800000  MEMB      55              0.0000000000
      6854        55  CHL1      H9             -5.2728178507      -33.7245742382       13.5864900000  MEMB      55              0.0000000000
      6855        55  CHL1      C10            -4.5532442520      -31.9930746093       14.5693900000  MEMB      55              0.0000000000
      6856        55  CHL1      C19            -3.7094939232      -30.7760861510       14.2461300000  MEMB      55              0.0000000000
      6857        55  CHL1      H19A           -2.6999362275      -31.0432497378       13.8670000000  MEMB      55              0.0000000000
      6858        55  CHL1      H19B           -4.2180219180      -30.1835757358       13.4557800000  MEMB      55              0.0000000000
      6859        55  CHL1      H19C           -3.6505601122      -30.1195241646       15.1404300000  MEMB      55              0.0000000000
      6860        55  CHL1      C1             -6.0575765330      -31.6651891270       14.9983600000  MEMB      55              0.0000000000
      6861        55  CHL1      H1A            -6.5910721116      -31.2186751181       14.1321400000  MEMB      55              0.0000000000
      6862        55  CHL1      H1B            -6.4965080944      -32.6636642370       15.2097700000  MEMB      55              0.0000000000
      6863        55  CHL1      C2             -6.2244695124      -30.7422288060       16.2454100000  MEMB      55              0.0000000000
      6864        55  CHL1      H2A            -7.3035334124      -30.5732150865       16.4488200000  MEMB      55              0.0000000000
      6865        55  CHL1      H2B            -5.6928414780      -29.7878846409       16.0431400000  MEMB      55              0.0000000000
      6866        55  CHL1      C20            -2.5576292646      -34.8455818240        8.3935200000  MEMB      55              0.0000000000
      6867        55  CHL1      H20            -1.5263470049      -34.4467110681        8.5017000000  MEMB      55              0.0000000000
      6868        55  CHL1      C21            -3.4274929158      -33.9935953084        7.4882800000  MEMB      55              0.0000000000
      6869        55  CHL1      H21A           -4.4222275457      -34.4061469908        7.2151100000  MEMB      55              0.0000000000
      6870        55  CHL1      H21B           -2.8783230285      -33.7162621203        6.5631700000  MEMB      55              0.0000000000
      6871        55  CHL1      H21C           -3.7559261342      -33.0223099536        7.9161300000  MEMB      55              0.0000000000
      6872        55  CHL1      C22            -2.4843984263      -36.2383813655        7.6801900000  MEMB      55              0.0000000000
      6873        55  CHL1      H22A           -1.5784963454      -36.7244942707        8.1013100000  MEMB      55              0.0000000000
      6874        55  CHL1      H22B           -3.3542877553      -36.8988856437        7.8835400000  MEMB      55              0.0000000000
      6875        55  CHL1      C23            -2.3383007304      -36.2946497024        6.1454100000  MEMB      55              0.0000000000
      6876        55  CHL1      H23A           -3.2631053379      -35.8869029766        5.6841300000  MEMB      55              0.0000000000
      6877        55  CHL1      H23B           -1.4760745615      -35.7086497595        5.7613700000  MEMB      55              0.0000000000
      6878        55  CHL1      C24            -2.2168521774      -37.7297751791        5.6575000000  MEMB      55              0.0000000000
      6879        55  CHL1      H24A           -1.5399224089      -38.3002648858        6.3287900000  MEMB      55              0.0000000000
      6880        55  CHL1      H24B           -3.1618411420      -38.2893663936        5.8253500000  MEMB      55              0.0000000000
      6881        55  CHL1      C25            -1.9420629914      -37.8607485552        4.0882600000  MEMB      55              0.0000000000
      6882        55  CHL1      H25            -0.9650293080      -37.4189890074        3.7974400000  MEMB      55              0.0000000000
      6883        55  CHL1      C26            -1.7234061892      -39.3133250054        3.6626700000  MEMB      55              0.0000000000
      6884        55  CHL1      H26A           -0.7912914078      -39.7221305317        4.1080400000  MEMB      55              0.0000000000
      6885        55  CHL1      H26B           -2.5869667950      -39.9004120903        4.0420200000  MEMB      55              0.0000000000
      6886        55  CHL1      H26C           -1.7499206866      -39.3374870485        2.5522500000  MEMB      55              0.0000000000
      6887        55  CHL1      C27            -2.9855753917      -37.2976897664        3.1282300000  MEMB      55              0.0000000000
      6888        55  CHL1      H27A           -2.7579284783      -37.5179562634        2.0633500000  MEMB      55              0.0000000000
      6889        55  CHL1      H27B           -3.9806361402      -37.7667145800        3.2837300000  MEMB      55              0.0000000000
      6890        55  CHL1      H27C           -3.0510223563      -36.2097881825        3.3439100000  MEMB      55              0.0000000000
      6891        56  DOPE      N             -26.5978450525      -20.9687840477       18.4225004244  MEMB      56              0.0000000000
      6892        56  DOPE      HN1           -27.4178537074      -21.4723541769       18.8169660994  MEMB      56              0.0000000000
      6893        56  DOPE      HN2           -27.0328543056      -20.2325164918       17.8306581534  MEMB      56              0.0000000000
      6894        56  DOPE      HN3           -26.0058522415      -21.6200128239       17.8683835090  MEMB      56              0.0000000000
      6895        56  DOPE      C12           -25.8483715777      -20.4656492441       19.6153427565  MEMB      56              0.0000000000
      6896        56  DOPE      H12A          -24.7632720749      -20.4691877383       19.3768734750  MEMB      56              0.0000000000
      6897        56  DOPE      H12B          -26.0004648256      -21.2141433147       20.4221545741  MEMB      56              0.0000000000
      6898        56  DOPE      C11           -26.1354633017      -19.0087778498       20.0110085741  MEMB      56              0.0000000000
      6899        56  DOPE      H11A          -25.6713827680      -18.7840320982       20.9951018333  MEMB      56              0.0000000000
      6900        56  DOPE      H11B          -27.2450247479      -18.9644997081       20.0461344568  MEMB      56              0.0000000000
      6901        56  DOPE      P             -26.1362076650      -16.5835955061       18.8601466889  MEMB      56              0.0000000000
      6902        56  DOPE      O13           -25.7809553909      -15.6899967066       19.9408202649  MEMB      56              0.0000000000
      6903        56  DOPE      O14           -27.5974261918      -16.6164736220       18.5884516474  MEMB      56              0.0000000000
      6904        56  DOPE      O11           -25.3465047391      -16.2254682095       17.4737031529  MEMB      56              0.0000000000
      6905        56  DOPE      O12           -25.5849284908      -18.1001980126       19.0880265245  MEMB      56              0.0000000000
      6906        56  DOPE      C1            -23.9122378196      -16.4737910974       17.2668736863  MEMB      56              0.0000000000
      6907        56  DOPE      HA            -23.7263493757      -17.5405797800       17.0184217884  MEMB      56              0.0000000000
      6908        56  DOPE      HB            -23.2584622825      -16.2454282543       18.1356366738  MEMB      56              0.0000000000
      6909        56  DOPE      C2            -23.3188638365      -15.5739016040       16.0687934438  MEMB      56              0.0000000000
      6910        56  DOPE      HS            -23.0626859863      -14.5934196929       16.5241491877  MEMB      56              0.0000000000
      6911        56  DOPE      O21           -24.3054834262      -15.2912866605       15.0665671154  MEMB      56              0.0000000000
      6912        56  DOPE      C21           -25.1686826914      -14.2521239534       15.2859424416  MEMB      56              0.0000000000
      6913        56  DOPE      O22           -25.1532979063      -13.6343380036       16.3617563910  MEMB      56              0.0000000000
      6914        56  DOPE      C22           -26.0620476023      -14.0014884111       14.1232413532  MEMB      56              0.0000000000
      6915        56  DOPE      H2R           -26.8855298134      -13.3001476397       14.3768529156  MEMB      56              0.0000000000
      6916        56  DOPE      H2S           -26.6492467723      -14.9202777858       13.9102991300  MEMB      56              0.0000000000
      6917        56  DOPE      C3            -22.0977539635      -16.3452266980       15.3685363062  MEMB      56              0.0000000000
      6918        56  DOPE      HX            -21.4607783427      -16.4900659190       16.2672045108  MEMB      56              0.0000000000
      6919        56  DOPE      HY            -21.5920222240      -15.5634735022       14.7623857208  MEMB      56              0.0000000000
      6920        56  DOPE      O31           -22.4717244424      -17.4942014979       14.6965782476  MEMB      56              0.0000000000
      6921        56  DOPE      C31           -22.5663626988      -17.4933699535       13.3314015973  MEMB      56              0.0000000000
      6922        56  DOPE      O32           -22.3533190850      -16.5217882999       12.6355753319  MEMB      56              0.0000000000
      6923        56  DOPE      C32           -22.5822013262      -18.9600617657       12.9360722547  MEMB      56              0.0000000000
      6924        56  DOPE      H2X           -21.5571517405      -19.3874736714       12.9662923512  MEMB      56              0.0000000000
      6925        56  DOPE      H2Y           -23.2316328156      -19.6401979957       13.5276587559  MEMB      56              0.0000000000
      6926        56  DOPE      C23           -25.1928955017      -13.4842429663       12.9039032098  MEMB      56              0.0000000000
      6927        56  DOPE      H3R           -24.2565634365      -14.0420976194       12.6884930002  MEMB      56              0.0000000000
      6928        56  DOPE      H3S           -24.6887371443      -12.6364959339       13.4152448514  MEMB      56              0.0000000000
      6929        56  DOPE      C24           -25.8059814205      -12.9163492760       11.5749500259  MEMB      56              0.0000000000
      6930        56  DOPE      H4R           -24.9740942358      -12.4263375700       11.0252471801  MEMB      56              0.0000000000
      6931        56  DOPE      H4S           -26.5021094076      -12.1021378169       11.8695461248  MEMB      56              0.0000000000
      6932        56  DOPE      C25           -26.4720453791      -14.0223193337       10.7285676228  MEMB      56              0.0000000000
      6933        56  DOPE      H5R           -27.3963769272      -14.2894146857       11.2840787004  MEMB      56              0.0000000000
      6934        56  DOPE      H5S           -25.9248605477      -14.9842330584       10.6304267590  MEMB      56              0.0000000000
      6935        56  DOPE      C26           -26.9799569587      -13.4751663562        9.3662285696  MEMB      56              0.0000000000
      6936        56  DOPE      H6R           -26.0540341260      -13.0914008675        8.8869457149  MEMB      56              0.0000000000
      6937        56  DOPE      H6S           -27.6838743595      -12.6304419023        9.5251683827  MEMB      56              0.0000000000
      6938        56  DOPE      C27           -27.6004792474      -14.4220741691        8.3864247852  MEMB      56              0.0000000000
      6939        56  DOPE      H7R           -26.7888869616      -14.9924610585        7.8861277241  MEMB      56              0.0000000000
      6940        56  DOPE      H7S           -27.9184809085      -13.7087696700        7.5962401216  MEMB      56              0.0000000000
      6941        56  DOPE      C28           -28.8617189604      -15.2779822405        8.6642028250  MEMB      56              0.0000000000
      6942        56  DOPE      H8R           -28.7064647553      -15.9770005938        9.5136686517  MEMB      56              0.0000000000
      6943        56  DOPE      H8S           -29.0252054956      -15.9251094907        7.7760478550  MEMB      56              0.0000000000
      6944        56  DOPE      C29           -30.1168357711      -14.6234473083        8.9171033640  MEMB      56              0.0000000000
      6945        56  DOPE      H9R           -30.0046009315      -13.7548395982        9.5826287573  MEMB      56              0.0000000000
      6946        56  DOPE      C210          -31.3612996923      -14.9773171581        8.4609998771  MEMB      56              0.0000000000
      6947        56  DOPE      H10R          -32.1969100298      -14.3306587770        8.7669212468  MEMB      56              0.0000000000
      6948        56  DOPE      C211          -31.7284003241      -16.0927164776        7.5644290974  MEMB      56              0.0000000000
      6949        56  DOPE      H11R          -32.7056959399      -16.4185684885        7.9804046488  MEMB      56              0.0000000000
      6950        56  DOPE      H11S          -30.9331295606      -16.8562254211        7.7019787743  MEMB      56              0.0000000000
      6951        56  DOPE      C212          -31.7736160259      -15.8113692467        6.0830533340  MEMB      56              0.0000000000
      6952        56  DOPE      H12R          -32.2781611462      -14.8262583087        5.9865578168  MEMB      56              0.0000000000
      6953        56  DOPE      H12S          -32.3336515802      -16.6649105430        5.6447065380  MEMB      56              0.0000000000
      6954        56  DOPE      C213          -30.4343270016      -15.9216873646        5.4198752230  MEMB      56              0.0000000000
      6955        56  DOPE      H13R          -30.0869830813      -16.9136693236        5.7799372396  MEMB      56              0.0000000000
      6956        56  DOPE      H13S          -29.8174233114      -15.0315112962        5.6675386461  MEMB      56              0.0000000000
      6957        56  DOPE      C214          -30.4227146295      -15.9188697166        3.8621555436  MEMB      56              0.0000000000
      6958        56  DOPE      H14R          -30.7054983113      -14.9280988013        3.4465501078  MEMB      56              0.0000000000
      6959        56  DOPE      H14S          -31.2431136000      -16.5886715803        3.5265497141  MEMB      56              0.0000000000
      6960        56  DOPE      C215          -29.1085165662      -16.4097093838        3.1615517330  MEMB      56              0.0000000000
      6961        56  DOPE      H15R          -29.3483825785      -16.6512803701        2.1039940922  MEMB      56              0.0000000000
      6962        56  DOPE      H15S          -28.8530796156      -17.3670511046        3.6641145247  MEMB      56              0.0000000000
      6963        56  DOPE      C216          -27.8696115315      -15.5146426269        3.2370970690  MEMB      56              0.0000000000
      6964        56  DOPE      H16R          -27.4800544717      -15.5299392182        4.2774488806  MEMB      56              0.0000000000
      6965        56  DOPE      H16S          -28.1487555502      -14.5140243174        2.8431916328  MEMB      56              0.0000000000
      6966        56  DOPE      C217          -26.6023763274      -16.1345072050        2.4920173744  MEMB      56              0.0000000000
      6967        56  DOPE      H17R          -26.5529621569      -17.2104782975        2.7643499520  MEMB      56              0.0000000000
      6968        56  DOPE      H17S          -25.7390328449      -15.6021683118        2.9454210117  MEMB      56              0.0000000000
      6969        56  DOPE      C218          -26.7754038258      -15.8426434999        1.0232997436  MEMB      56              0.0000000000
      6970        56  DOPE      H18R          -27.6515103612      -16.2514904274        0.4759402439  MEMB      56              0.0000000000
      6971        56  DOPE      H18S          -25.8542980024      -16.1937546961        0.5108479211  MEMB      56              0.0000000000
      6972        56  DOPE      H18T          -26.9832431994      -14.7602424339        0.8835422056  MEMB      56              0.0000000000
      6973        56  DOPE      C33           -23.1453004978      -19.1227328889       11.4975082792  MEMB      56              0.0000000000
      6974        56  DOPE      H3X           -22.6706794637      -18.3251420109       10.8868493528  MEMB      56              0.0000000000
      6975        56  DOPE      H3Y           -24.2519582855      -19.0283199678       11.4707542694  MEMB      56              0.0000000000
      6976        56  DOPE      C34           -22.8207717884      -20.5015711150       10.8159771394  MEMB      56              0.0000000000
      6977        56  DOPE      H4X           -21.7588177302      -20.6443105444       10.5223778826  MEMB      56              0.0000000000
      6978        56  DOPE      H4Y           -23.0644921121      -21.2820835252       11.5681215628  MEMB      56              0.0000000000
      6979        56  DOPE      C35           -23.7399299174      -20.6525537031        9.5573335734  MEMB      56              0.0000000000
      6980        56  DOPE      H5X           -23.2747192597      -21.3520095054        8.8302422792  MEMB      56              0.0000000000
      6981        56  DOPE      H5Y           -23.8964748034      -19.6989005940        9.0092824839  MEMB      56              0.0000000000
      6982        56  DOPE      C36           -25.1399088964      -21.1728508287        9.9972236876  MEMB      56              0.0000000000
      6983        56  DOPE      H6X           -25.3739482127      -20.8116514428       11.0214707144  MEMB      56              0.0000000000
      6984        56  DOPE      H6Y           -25.0705643537      -22.2816846255        9.9978370924  MEMB      56              0.0000000000
      6985        56  DOPE      C37           -26.2096319542      -20.7227913160        9.0405784192  MEMB      56              0.0000000000
      6986        56  DOPE      H7X           -25.9826626359      -21.1112128977        8.0247371095  MEMB      56              0.0000000000
      6987        56  DOPE      H7Y           -27.1657305693      -21.2252224854        9.3008848462  MEMB      56              0.0000000000
      6988        56  DOPE      C38           -26.4578594404      -19.1700319131        8.9454023630  MEMB      56              0.0000000000
      6989        56  DOPE      H8X           -25.5217138914      -18.7374278625        8.5321159587  MEMB      56              0.0000000000
      6990        56  DOPE      H8Y           -26.5704317873      -18.7161255192        9.9531813906  MEMB      56              0.0000000000
      6991        56  DOPE      C39           -27.7494158928      -18.8126954808        8.2030084233  MEMB      56              0.0000000000
      6992        56  DOPE      H9X           -28.6656556011      -18.8685415947        8.8091323047  MEMB      56              0.0000000000
      6993        56  DOPE      C310          -27.7618313863      -18.7283109374        6.8524886216  MEMB      56              0.0000000000
      6994        56  DOPE      H10X          -28.6581484622      -18.5628126325        6.2366758413  MEMB      56              0.0000000000
      6995        56  DOPE      C311          -26.4602766687      -18.8957337828        6.0143756009  MEMB      56              0.0000000000
      6996        56  DOPE      H11X          -25.8253550549      -19.7813822987        6.2307606630  MEMB      56              0.0000000000
      6997        56  DOPE      H11Y          -26.7254425299      -19.1978217775        4.9786382733  MEMB      56              0.0000000000
      6998        56  DOPE      C312          -25.5197745804      -17.6750759993        6.0667004500  MEMB      56              0.0000000000
      6999        56  DOPE      H12X          -25.6037598817      -17.1032916145        7.0155578602  MEMB      56              0.0000000000
      7000        56  DOPE      H12Y          -25.7841001320      -16.9961995174        5.2279039400  MEMB      56              0.0000000000
      7001        56  DOPE      C313          -23.9544996468      -17.9647655370        5.8424466647  MEMB      56              0.0000000000
      7002        56  DOPE      H13X          -23.4174766832      -17.0231984287        6.0861245532  MEMB      56              0.0000000000
      7003        56  DOPE      H13Y          -23.7195753876      -18.6991136653        6.6423618555  MEMB      56              0.0000000000
      7004        56  DOPE      C314          -23.6006198864      -18.4303172560        4.4430916287  MEMB      56              0.0000000000
      7005        56  DOPE      H14X          -24.4294205870      -19.0143331872        3.9888506117  MEMB      56              0.0000000000
      7006        56  DOPE      H14Y          -22.7915132206      -19.1832810782        4.5558427836  MEMB      56              0.0000000000
      7007        56  DOPE      C315          -23.1281407251      -17.3325041808        3.4400834363  MEMB      56              0.0000000000
      7008        56  DOPE      H15X          -22.1845328897      -16.9010149278        3.8372511838  MEMB      56              0.0000000000
      7009        56  DOPE      H15Y          -23.9541350451      -16.6072128255        3.2788160165  MEMB      56              0.0000000000
      7010        56  DOPE      C316          -22.8619098922      -17.8430911740        1.9797807380  MEMB      56              0.0000000000
      7011        56  DOPE      H16X          -23.7190423127      -18.4482288936        1.6144685974  MEMB      56              0.0000000000
      7012        56  DOPE      H16Y          -22.0297009061      -18.5721859127        2.0806300983  MEMB      56              0.0000000000
      7013        56  DOPE      C317          -22.4976195093      -16.7642916498        0.9507292861  MEMB      56              0.0000000000
      7014        56  DOPE      H17X          -23.1845852479      -15.9522614636        1.2716752126  MEMB      56              0.0000000000
      7015        56  DOPE      H17Y          -21.5363748657      -16.2622589392        1.1921690887  MEMB      56              0.0000000000
      7016        56  DOPE      C318          -22.6660275323      -17.1369864196       -0.5700868942  MEMB      56              0.0000000000
      7017        56  DOPE      H18X          -21.9106571303      -17.8537153399       -0.9574318161  MEMB      56              0.0000000000
      7018        56  DOPE      H18Y          -23.6104312203      -17.7157264367       -0.6565894667  MEMB      56              0.0000000000
      7019        56  DOPE      H18Z          -22.7830617921      -16.2553530320       -1.2359299955  MEMB      56              0.0000000000
      7020        57  CHL1      C3              8.2775988411      -31.1262186581       17.3291950000  MEMB      57              0.0000000000
      7021        57  CHL1      H3              8.2852732329      -32.2366375833       17.3642450000  MEMB      57              0.0000000000
      7022        57  CHL1      O3              8.3495725189      -30.7676685419       18.6708050000  MEMB      57              0.0000000000
      7023        57  CHL1      H3'             8.4209057739      -29.8106277852       18.6466650000  MEMB      57              0.0000000000
      7024        57  CHL1      C4              9.5491488491      -30.5555012208       16.6758750000  MEMB      57              0.0000000000
      7025        57  CHL1      H4A             9.7038702555      -29.4695957214       16.8525050000  MEMB      57              0.0000000000
      7026        57  CHL1      H4B            10.3802157839      -31.1141625979       17.1570850000  MEMB      57              0.0000000000
      7027        57  CHL1      C5              9.4539857162      -30.6936475803       15.1801450000  MEMB      57              0.0000000000
      7028        57  CHL1      C6             10.3489934861      -31.4384060452       14.4183150000  MEMB      57              0.0000000000
      7029        57  CHL1      H6             11.1984159762      -31.8943345368       14.9480350000  MEMB      57              0.0000000000
      7030        57  CHL1      C7             10.3616341113      -31.5312490326       12.8965150000  MEMB      57              0.0000000000
      7031        57  CHL1      H7A            11.4049557635      -31.6293586516       12.5274850000  MEMB      57              0.0000000000
      7032        57  CHL1      H7B             9.8840265543      -32.4687561770       12.5397550000  MEMB      57              0.0000000000
      7033        57  CHL1      C8              9.3836423874      -30.4747635274       12.2800750000  MEMB      57              0.0000000000
      7034        57  CHL1      H8              9.8188662191      -29.4720286540       12.4786450000  MEMB      57              0.0000000000
      7035        57  CHL1      C14             9.2566870643      -30.6882907461       10.7852350000  MEMB      57              0.0000000000
      7036        57  CHL1      H14             8.7783888577      -31.6672196409       10.5678850000  MEMB      57              0.0000000000
      7037        57  CHL1      C15            10.5152591983      -30.7047755932        9.8970150000  MEMB      57              0.0000000000
      7038        57  CHL1      H15A           11.1355058640      -29.8156687417       10.1401050000  MEMB      57              0.0000000000
      7039        57  CHL1      H15B           10.9589023358      -31.6508591759       10.2744150000  MEMB      57              0.0000000000
      7040        57  CHL1      C16            10.0114770412      -30.7083883479        8.4586650000  MEMB      57              0.0000000000
      7041        57  CHL1      H16A           10.5167845487      -29.9235773813        7.8561350000  MEMB      57              0.0000000000
      7042        57  CHL1      H16B            9.9741377205      -31.6816424489        7.9241650000  MEMB      57              0.0000000000
      7043        57  CHL1      C17             8.4619370861      -30.3611853947        8.5997050000  MEMB      57              0.0000000000
      7044        57  CHL1      H17             7.9598000542      -31.3509543270        8.5491550000  MEMB      57              0.0000000000
      7045        57  CHL1      C13             8.2483736013      -29.7973570643       10.0583050000  MEMB      57              0.0000000000
      7046        57  CHL1      C18             8.6478815764      -28.2981703373       10.2326950000  MEMB      57              0.0000000000
      7047        57  CHL1      H18A            8.9358337301      -28.0391588024       11.2739950000  MEMB      57              0.0000000000
      7048        57  CHL1      H18B            9.4826935294      -28.1363923404        9.5176850000  MEMB      57              0.0000000000
      7049        57  CHL1      H18C            7.8620223779      -27.5607642566        9.9625450000  MEMB      57              0.0000000000
      7050        57  CHL1      C12             6.8794896581      -30.0186834130       10.5899750000  MEMB      57              0.0000000000
      7051        57  CHL1      H12A            6.0978711811      -29.3899655749       10.1123550000  MEMB      57              0.0000000000
      7052        57  CHL1      H12B            6.4911813110      -31.0442080081       10.4115450000  MEMB      57              0.0000000000
      7053        57  CHL1      C11             6.8948249868      -29.8001880433       12.1333550000  MEMB      57              0.0000000000
      7054        57  CHL1      H11A            7.0993768584      -28.7202509878       12.2952950000  MEMB      57              0.0000000000
      7055        57  CHL1      H11B            5.9238478450      -30.2168333953       12.4767550000  MEMB      57              0.0000000000
      7056        57  CHL1      C9              8.0350026955      -30.5168761188       12.9717850000  MEMB      57              0.0000000000
      7057        57  CHL1      H9              7.7766744871      -31.5950171756       13.0440350000  MEMB      57              0.0000000000
      7058        57  CHL1      C10             8.2254867382      -30.0738884783       14.4805450000  MEMB      57              0.0000000000
      7059        57  CHL1      C19             8.2796417238      -28.5052316806       14.4630850000  MEMB      57              0.0000000000
      7060        57  CHL1      H19A            7.3172926236      -28.0372754519       14.1644050000  MEMB      57              0.0000000000
      7061        57  CHL1      H19B            8.6589185214      -28.0284932609       15.3921650000  MEMB      57              0.0000000000
      7062        57  CHL1      H19C            9.0344348017      -28.2237569213       13.6979750000  MEMB      57              0.0000000000
      7063        57  CHL1      C1              6.9718240785      -30.6807016739       15.2475250000  MEMB      57              0.0000000000
      7064        57  CHL1      H1A             6.0519091843      -30.2803115607       14.7702750000  MEMB      57              0.0000000000
      7065        57  CHL1      H1B             7.0640376929      -31.7708154066       15.0539650000  MEMB      57              0.0000000000
      7066        57  CHL1      C2              7.0162528249      -30.3842943131       16.7446850000  MEMB      57              0.0000000000
      7067        57  CHL1      H2A             6.1019946195      -30.7967974480       17.2225050000  MEMB      57              0.0000000000
      7068        57  CHL1      H2B             7.1509874827      -29.2999231805       16.9454850000  MEMB      57              0.0000000000
      7069        57  CHL1      C20             7.8922482409      -29.5578836627        7.3951250000  MEMB      57              0.0000000000
      7070        57  CHL1      H20             8.4826992289      -28.6239157525        7.2793950000  MEMB      57              0.0000000000
      7071        57  CHL1      C21             6.4388629435      -29.1558409985        7.5728750000  MEMB      57              0.0000000000
      7072        57  CHL1      H21A            5.9111205855      -30.0100914783        8.0483450000  MEMB      57              0.0000000000
      7073        57  CHL1      H21B            5.8865522199      -28.7718404028        6.6886750000  MEMB      57              0.0000000000
      7074        57  CHL1      H21C            6.4115741672      -28.3553687082        8.3428250000  MEMB      57              0.0000000000
      7075        57  CHL1      C22             8.1270946676      -30.3224732498        6.0541250000  MEMB      57              0.0000000000
      7076        57  CHL1      H22A            9.2209231998      -30.3715800570        5.8658550000  MEMB      57              0.0000000000
      7077        57  CHL1      H22B            7.9102936162      -31.4050287969        6.1781950000  MEMB      57              0.0000000000
      7078        57  CHL1      C23             7.3525535393      -29.8180740492        4.8783950000  MEMB      57              0.0000000000
      7079        57  CHL1      H23A            6.2525183394      -29.9605599510        4.9412650000  MEMB      57              0.0000000000
      7080        57  CHL1      H23B            7.6347034934      -28.7506371098        4.7547250000  MEMB      57              0.0000000000
      7081        57  CHL1      C24             7.8847928221      -30.4246178833        3.5525550000  MEMB      57              0.0000000000
      7082        57  CHL1      H24A            8.9908886220      -30.3241644918        3.5244650000  MEMB      57              0.0000000000
      7083        57  CHL1      H24B            7.6608506867      -31.5111033564        3.6135050000  MEMB      57              0.0000000000
      7084        57  CHL1      C25             7.4081291384      -29.8303804453        2.2642350000  MEMB      57              0.0000000000
      7085        57  CHL1      H25             7.6859923096      -28.7548937673        2.2431650000  MEMB      57              0.0000000000
      7086        57  CHL1      C26             7.8248266445      -30.5005400728        0.9295250000  MEMB      57              0.0000000000
      7087        57  CHL1      H26A            7.3936089325      -31.5222239385        0.9969350000  MEMB      57              0.0000000000
      7088        57  CHL1      H26B            7.2338572396      -30.0072867592        0.1284250000  MEMB      57              0.0000000000
      7089        57  CHL1      H26C            8.9240891744      -30.4700318521        0.7713550000  MEMB      57              0.0000000000
      7090        57  CHL1      C27             5.9017469891      -30.0069656840        2.1900550000  MEMB      57              0.0000000000
      7091        57  CHL1      H27A            5.4244069236      -29.4444782335        1.3593450000  MEMB      57              0.0000000000
      7092        57  CHL1      H27B            5.6085128188      -31.0639672818        2.0137550000  MEMB      57              0.0000000000
      7093        57  CHL1      H27C            5.4591232217      -29.6400925551        3.1407450000  MEMB      57              0.0000000000
      7094        58  DOPC      N               3.5250858628       32.6615603168       19.5412673213  MEMB      58              0.0000000000
      7095        58  DOPC      C12             2.6686027777       32.7405768261       18.2832484538  MEMB      58              0.0000000000
      7096        58  DOPC      H12A            1.9312457967       31.9614291137       18.4082827866  MEMB      58              0.0000000000
      7097        58  DOPC      H12B            3.3072067679       32.4993224778       17.4463606227  MEMB      58              0.0000000000
      7098        58  DOPC      C13             4.2241293835       31.3236272500       19.5145690843  MEMB      58              0.0000000000
      7099        58  DOPC      H13A            3.5516556961       30.4785447243       19.5107258587  MEMB      58              0.0000000000
      7100        58  DOPC      H13B            4.8071761200       31.1886216032       18.6155530143  MEMB      58              0.0000000000
      7101        58  DOPC      H13C            4.8626129776       31.3078238345       20.3854817939  MEMB      58              0.0000000000
      7102        58  DOPC      C14             2.7035381805       32.8287576712       20.7798431727  MEMB      58              0.0000000000
      7103        58  DOPC      H14A            3.2146704500       32.4893979369       21.6686505150  MEMB      58              0.0000000000
      7104        58  DOPC      H14B            2.2931006480       33.8232997569       20.8737958085  MEMB      58              0.0000000000
      7105        58  DOPC      H14C            1.8423215523       32.2050075704       20.5910528634  MEMB      58              0.0000000000
      7106        58  DOPC      C15             4.4538723893       33.8127028550       19.5791496939  MEMB      58              0.0000000000
      7107        58  DOPC      H15A            3.8600525362       34.7056996551       19.7069571794  MEMB      58              0.0000000000
      7108        58  DOPC      H15B            5.1984760357       33.8129474399       18.7968676973  MEMB      58              0.0000000000
      7109        58  DOPC      H15C            5.0702616761       33.6577828151       20.4523414512  MEMB      58              0.0000000000
      7110        58  DOPC      C11             1.9312278193       34.0739459993       17.9309030208  MEMB      58              0.0000000000
      7111        58  DOPC      H11A            2.6257769746       34.9305590595       17.7962304854  MEMB      58              0.0000000000
      7112        58  DOPC      H11B            1.5271388301       33.9646283389       16.9017856810  MEMB      58              0.0000000000
      7113        58  DOPC      P              -0.4830668208       33.5432797779       18.7279746625  MEMB      58              0.0000000000
      7114        58  DOPC      O13            -1.3025652550       33.5029574431       19.9954124257  MEMB      58              0.0000000000
      7115        58  DOPC      O14            -0.2279321925       32.2603877911       18.0601896090  MEMB      58              0.0000000000
      7116        58  DOPC      O12             0.8895236753       34.4433626936       18.9578443257  MEMB      58              0.0000000000
      7117        58  DOPC      O11            -1.3115976596       34.3879079760       17.6295982256  MEMB      58              0.0000000000
      7118        58  DOPC      C1             -1.0782629122       35.7446497032       17.1602404726  MEMB      58              0.0000000000
      7119        58  DOPC      HA             -0.0052393298       36.0252786382       17.2249605070  MEMB      58              0.0000000000
      7120        58  DOPC      HB             -1.6442042074       36.4743432166       17.7779614275  MEMB      58              0.0000000000
      7121        58  DOPC      C2             -1.4311125587       35.7798216793       15.6884102803  MEMB      58              0.0000000000
      7122        58  DOPC      HS             -2.5384920311       35.6912152908       15.7018547186  MEMB      58              0.0000000000
      7123        58  DOPC      O21            -0.7983387520       34.6923238763       14.9819378276  MEMB      58              0.0000000000
      7124        58  DOPC      C21            -1.5964367316       34.1032505639       14.1061003444  MEMB      58              0.0000000000
      7125        58  DOPC      O22            -2.8210884344       34.0966440112       14.1590251138  MEMB      58              0.0000000000
      7126        58  DOPC      C22            -0.6226513099       33.5739896690       12.9884573847  MEMB      58              0.0000000000
      7127        58  DOPC      H2R             0.3238130844       34.1512816495       13.0609844161  MEMB      58              0.0000000000
      7128        58  DOPC      H2S            -1.1153966591       33.6647878344       11.9968534507  MEMB      58              0.0000000000
      7129        58  DOPC      C3             -0.9552991969       37.1347926722       15.1437852442  MEMB      58              0.0000000000
      7130        58  DOPC      HX             -1.2633555087       37.9914819704       15.7805786763  MEMB      58              0.0000000000
      7131        58  DOPC      HY             -1.4431562016       37.3210706010       14.1631645877  MEMB      58              0.0000000000
      7132        58  DOPC      O31             0.5058058319       37.0485510557       15.1112639461  MEMB      58              0.0000000000
      7133        58  DOPC      C31             1.0994188493       36.9118996636       13.9159228098  MEMB      58              0.0000000000
      7134        58  DOPC      O32             0.5581427735       36.8845882464       12.8423512893  MEMB      58              0.0000000000
      7135        58  DOPC      C32             2.6089998660       36.9664157017       14.1874020642  MEMB      58              0.0000000000
      7136        58  DOPC      H2X             3.0890925142       37.5979820222       13.4096132555  MEMB      58              0.0000000000
      7137        58  DOPC      H2Y             2.9756463428       37.3755547007       15.1530610181  MEMB      58              0.0000000000
      7138        58  DOPC      C23            -0.3529007262       32.0838672146       13.1304720550  MEMB      58              0.0000000000
      7139        58  DOPC      H3R            -1.3393604329       31.5896827676       13.0000885328  MEMB      58              0.0000000000
      7140        58  DOPC      H3S            -0.0408634044       31.8113414883       14.1613373514  MEMB      58              0.0000000000
      7141        58  DOPC      C24             0.7667297013       31.6440574610       12.1540675119  MEMB      58              0.0000000000
      7142        58  DOPC      H4R             1.3528906696       30.8763845349       12.7030799230  MEMB      58              0.0000000000
      7143        58  DOPC      H4S             1.3516695072       32.5436031832       11.8659983516  MEMB      58              0.0000000000
      7144        58  DOPC      C25             0.2179385714       30.9461475853       10.8597873032  MEMB      58              0.0000000000
      7145        58  DOPC      H5R            -0.7575027547       30.5063877457       11.1588636402  MEMB      58              0.0000000000
      7146        58  DOPC      H5S             0.9061526137       30.1011237918       10.6438772756  MEMB      58              0.0000000000
      7147        58  DOPC      C26             0.1587164542       31.8996416346        9.6443806127  MEMB      58              0.0000000000
      7148        58  DOPC      H6R             1.1505315481       32.1402037616        9.2053438181  MEMB      58              0.0000000000
      7149        58  DOPC      H6S            -0.3179247604       32.8217949907       10.0403193511  MEMB      58              0.0000000000
      7150        58  DOPC      C27            -0.6947793950       31.3121566713        8.5307026252  MEMB      58              0.0000000000
      7151        58  DOPC      H7R            -1.6973637024       31.0937623899        8.9566719053  MEMB      58              0.0000000000
      7152        58  DOPC      H7S            -0.3264254367       30.3431562303        8.1311095905  MEMB      58              0.0000000000
      7153        58  DOPC      C28            -0.8697734887       32.1089136380        7.1911754301  MEMB      58              0.0000000000
      7154        58  DOPC      H8R            -1.6789478742       32.8566016188        7.3344251012  MEMB      58              0.0000000000
      7155        58  DOPC      H8S            -1.1589256057       31.4106289378        6.3768590455  MEMB      58              0.0000000000
      7156        58  DOPC      C29             0.3342707679       32.8230154021        6.6671159696  MEMB      58              0.0000000000
      7157        58  DOPC      H9R             1.2919433670       32.3236946351        6.8757832252  MEMB      58              0.0000000000
      7158        58  DOPC      C210            0.4278138311       33.9121225133        5.8431142081  MEMB      58              0.0000000000
      7159        58  DOPC      H10R            1.4380468550       34.2623740501        5.5847481120  MEMB      58              0.0000000000
      7160        58  DOPC      C211           -0.7616465511       34.5988095022        5.1913253369  MEMB      58              0.0000000000
      7161        58  DOPC      H11R           -1.6943289399       34.2425894388        5.6786978391  MEMB      58              0.0000000000
      7162        58  DOPC      H11S           -0.7958870670       34.2014245359        4.1543910331  MEMB      58              0.0000000000
      7163        58  DOPC      C212           -0.8016881953       36.1340000008        5.2661080522  MEMB      58              0.0000000000
      7164        58  DOPC      H12R           -0.0269673459       36.4264422328        4.5254286055  MEMB      58              0.0000000000
      7165        58  DOPC      H12S           -0.4743095894       36.5180871354        6.2558662155  MEMB      58              0.0000000000
      7166        58  DOPC      C213           -2.1309680851       36.7790478501        4.9078335500  MEMB      58              0.0000000000
      7167        58  DOPC      H13R           -2.0492758751       37.8840806560        4.9887648754  MEMB      58              0.0000000000
      7168        58  DOPC      H13S           -2.9520463745       36.4755564702        5.5919715935  MEMB      58              0.0000000000
      7169        58  DOPC      C214           -2.6787371039       36.4430141443        3.5034798093  MEMB      58              0.0000000000
      7170        58  DOPC      H14R           -3.6966153210       36.8672884585        3.3684390705  MEMB      58              0.0000000000
      7171        58  DOPC      H14S           -2.8008203508       35.3566857956        3.3052187812  MEMB      58              0.0000000000
      7172        58  DOPC      C215           -1.8451331495       36.9716761014        2.3748578116  MEMB      58              0.0000000000
      7173        58  DOPC      H15R           -1.0125849994       36.2370288795        2.3364090375  MEMB      58              0.0000000000
      7174        58  DOPC      H15S           -1.4342482607       37.9658456492        2.6525658843  MEMB      58              0.0000000000
      7175        58  DOPC      C216           -2.6114472347       37.0704739273        0.9722549088  MEMB      58              0.0000000000
      7176        58  DOPC      H16R           -3.5776663637       37.6132166102        1.0508146303  MEMB      58              0.0000000000
      7177        58  DOPC      H16S           -2.8345570799       36.0098266838        0.7281840892  MEMB      58              0.0000000000
      7178        58  DOPC      C217           -1.8638337018       37.8666942600       -0.0879171716  MEMB      58              0.0000000000
      7179        58  DOPC      H17R           -0.8820303000       37.3572842091       -0.1922462934  MEMB      58              0.0000000000
      7180        58  DOPC      H17S           -1.7925543194       38.9278089565        0.2334476999  MEMB      58              0.0000000000
      7181        58  DOPC      C218           -2.5443317006       37.7425216522       -1.4810970802  MEMB      58              0.0000000000
      7182        58  DOPC      H18R           -2.1680604699       38.4661841671       -2.2354536592  MEMB      58              0.0000000000
      7183        58  DOPC      H18S           -3.6441457354       37.8953622484       -1.5181095053  MEMB      58              0.0000000000
      7184        58  DOPC      H18T           -2.3793279679       36.7689650172       -1.9902951053  MEMB      58              0.0000000000
      7185        58  DOPC      C33             3.2932015066       35.5412063206       14.0589084533  MEMB      58              0.0000000000
      7186        58  DOPC      H3X             2.9088684425       35.2468021360       13.0589408412  MEMB      58              0.0000000000
      7187        58  DOPC      H3Y             2.7895245513       34.8854507026       14.8009432998  MEMB      58              0.0000000000
      7188        58  DOPC      C34             4.8251295370       35.6213131186       14.3594334354  MEMB      58              0.0000000000
      7189        58  DOPC      H4X             4.8490134867       36.1296745854       15.3470160990  MEMB      58              0.0000000000
      7190        58  DOPC      H4Y             5.1751677571       36.2339115354       13.5012275662  MEMB      58              0.0000000000
      7191        58  DOPC      C35             5.6397103825       34.3200437840       14.3021302354  MEMB      58              0.0000000000
      7192        58  DOPC      H5X             5.2721137115       33.7563740970       15.1861382928  MEMB      58              0.0000000000
      7193        58  DOPC      H5Y             6.7140446674       34.5770844273       14.4206910296  MEMB      58              0.0000000000
      7194        58  DOPC      C36             5.4703386434       33.5716536312       12.9973744829  MEMB      58              0.0000000000
      7195        58  DOPC      H6X             6.1982813552       32.7323745851       13.0029637096  MEMB      58              0.0000000000
      7196        58  DOPC      H6Y             4.5061828302       33.0781925777       12.7499459081  MEMB      58              0.0000000000
      7197        58  DOPC      C37             5.8679745217       34.2456043454       11.6875104785  MEMB      58              0.0000000000
      7198        58  DOPC      H7X             5.4397723429       35.2602351955       11.5409217334  MEMB      58              0.0000000000
      7199        58  DOPC      H7Y             6.9681895098       34.3922811420       11.7358229192  MEMB      58              0.0000000000
      7200        58  DOPC      C38             5.6679619023       33.3336467830       10.4526235369  MEMB      58              0.0000000000
      7201        58  DOPC      H8X             5.9786981987       32.3027900936       10.7266645195  MEMB      58              0.0000000000
      7202        58  DOPC      H8Y             6.3478583297       33.6644007990        9.6385816637  MEMB      58              0.0000000000
      7203        58  DOPC      C39             4.2107307155       33.2550162927        9.9858458239  MEMB      58              0.0000000000
      7204        58  DOPC      H9X             3.4128057495       33.6318312081       10.6425999316  MEMB      58              0.0000000000
      7205        58  DOPC      C310            3.8800757725       32.9173791205        8.7433225266  MEMB      58              0.0000000000
      7206        58  DOPC      H10X            2.8041305841       32.8588363269        8.5221552218  MEMB      58              0.0000000000
      7207        58  DOPC      C311            4.8763968496       32.5521015619        7.6740376543  MEMB      58              0.0000000000
      7208        58  DOPC      H11X            4.3673487281       31.8170636495        7.0145597965  MEMB      58              0.0000000000
      7209        58  DOPC      H11Y            5.8264898500       32.1265555326        8.0620509158  MEMB      58              0.0000000000
      7210        58  DOPC      C312            5.3199390076       33.8234406936        6.6777643336  MEMB      58              0.0000000000
      7211        58  DOPC      H12X            6.0747358763       33.5167608235        5.9224170753  MEMB      58              0.0000000000
      7212        58  DOPC      H12Y            5.8052024103       34.6468806739        7.2441449821  MEMB      58              0.0000000000
      7213        58  DOPC      C313            4.2382284632       34.4735539512        5.8870794921  MEMB      58              0.0000000000
      7214        58  DOPC      H13X            3.5145754208       33.6716050578        5.6272234110  MEMB      58              0.0000000000
      7215        58  DOPC      H13Y            3.7549219061       35.2249093030        6.5475341073  MEMB      58              0.0000000000
      7216        58  DOPC      C314            4.5869802619       35.2745497578        4.6175462380  MEMB      58              0.0000000000
      7217        58  DOPC      H14X            3.8695218232       36.0867184315        4.3726868617  MEMB      58              0.0000000000
      7218        58  DOPC      H14Y            5.4307116393       35.9943144888        4.6837045576  MEMB      58              0.0000000000
      7219        58  DOPC      C315            4.8114514804       34.3132676258        3.4070595071  MEMB      58              0.0000000000
      7220        58  DOPC      H15X            5.5145756456       33.5356211292        3.7747582147  MEMB      58              0.0000000000
      7221        58  DOPC      H15Y            5.2887639093       34.8770580184        2.5772196776  MEMB      58              0.0000000000
      7222        58  DOPC      C316            3.5394925961       33.7183668574        2.8596397889  MEMB      58              0.0000000000
      7223        58  DOPC      H16X            3.7169181138       32.8873150177        2.1439622834  MEMB      58              0.0000000000
      7224        58  DOPC      H16Y            3.0492588522       33.2135344561        3.7193703357  MEMB      58              0.0000000000
      7225        58  DOPC      C317            2.6886492130       34.7402081637        2.1914466697  MEMB      58              0.0000000000
      7226        58  DOPC      H17X            2.4551961691       35.5534945422        2.9114375246  MEMB      58              0.0000000000
      7227        58  DOPC      H17Y            3.2689644231       35.3080165428        1.4330624693  MEMB      58              0.0000000000
      7228        58  DOPC      C318            1.3915295459       34.2019731716        1.5117128011  MEMB      58              0.0000000000
      7229        58  DOPC      H18X            1.6121830237       33.4667847147        0.7085127077  MEMB      58              0.0000000000
      7230        58  DOPC      H18Y            0.8709275964       33.7142270116        2.3634172502  MEMB      58              0.0000000000
      7231        58  DOPC      H18Z            0.9466791032       35.1548706466        1.1533614725  MEMB      58              0.0000000000
      7232        59  23SM      N             -33.5552820860        6.4719320387       27.0795992306  MEMB      59              0.0000000000
      7233        59  23SM      C15           -32.8803720367        6.4444487810       28.4955643931  MEMB      59              0.0000000000
      7234        59  23SM      H15A          -31.9702627540        7.0238850095       28.4470357044  MEMB      59              0.0000000000
      7235        59  23SM      H15B          -32.6271903332        5.4201180091       28.7258802142  MEMB      59              0.0000000000
      7236        59  23SM      H15C          -33.6160225607        6.8294113787       29.1862323479  MEMB      59              0.0000000000
      7237        59  23SM      C14           -34.7206409399        5.5852689783       27.0507561840  MEMB      59              0.0000000000
      7238        59  23SM      H14A          -34.6467698627        4.6144421826       27.5181302079  MEMB      59              0.0000000000
      7239        59  23SM      H14B          -35.0690755387        5.5991802077       26.0286016666  MEMB      59              0.0000000000
      7240        59  23SM      H14C          -35.4911501305        6.0808502947       27.6226953448  MEMB      59              0.0000000000
      7241        59  23SM      C13           -34.0008544479        7.8589420823       26.7356798712  MEMB      59              0.0000000000
      7242        59  23SM      H13A          -34.4279156272        7.9628794890       25.7491628735  MEMB      59              0.0000000000
      7243        59  23SM      H13B          -33.2140293188        8.5948338771       26.8116376161  MEMB      59              0.0000000000
      7244        59  23SM      H13C          -34.7286957960        8.1625649889       27.4735551200  MEMB      59              0.0000000000
      7245        59  23SM      C12           -32.4404709706        6.0583015172       26.0943755318  MEMB      59              0.0000000000
      7246        59  23SM      H12A          -31.6714812097        5.4551956581       26.5540689295  MEMB      59              0.0000000000
      7247        59  23SM      H12B          -32.0071876823        7.0097528564       25.8234397458  MEMB      59              0.0000000000
      7248        59  23SM      C11           -32.9407818588        5.3447109421       24.8330447870  MEMB      59              0.0000000000
      7249        59  23SM      H11A          -32.1015897030        5.1456541005       24.1327206406  MEMB      59              0.0000000000
      7250        59  23SM      H11B          -33.6770113130        6.0349480930       24.3684375168  MEMB      59              0.0000000000
      7251        59  23SM      P             -32.5670610496        2.6981081893       25.2201930537  MEMB      59              0.0000000000
      7252        59  23SM      O13           -31.4461671640        3.0866665800       26.1033465093  MEMB      59              0.0000000000
      7253        59  23SM      O14           -33.4051602340        1.5387352102       25.5878818275  MEMB      59              0.0000000000
      7254        59  23SM      O11           -32.0750772407        2.4966128306       23.7645980984  MEMB      59              0.0000000000
      7255        59  23SM      O12           -33.5234790702        4.0150510760       25.0349605096  MEMB      59              0.0000000000
      7256        59  23SM      C1S           -32.9781772045        2.2543356512       22.7217631785  MEMB      59              0.0000000000
      7257        59  23SM      H1S           -33.8849456113        2.8924944018       22.7913731070  MEMB      59              0.0000000000
      7258        59  23SM      H1T           -33.2973002830        1.1981671248       22.8521072458  MEMB      59              0.0000000000
      7259        59  23SM      NF            -33.3596401049        2.4545606019       20.2714350444  MEMB      59              0.0000000000
      7260        59  23SM      HNF           -33.3061084107        1.6338415393       19.7079072795  MEMB      59              0.0000000000
      7261        59  23SM      C2S           -32.3374541083        2.5536656604       21.2822087420  MEMB      59              0.0000000000
      7262        59  23SM      H2S           -31.9697339675        3.6011252324       21.3261567213  MEMB      59              0.0000000000
      7263        59  23SM      C3S           -31.1877839826        1.5590322398       21.0697106644  MEMB      59              0.0000000000
      7264        59  23SM      H3S           -31.6401824975        0.5493664915       21.1708622600  MEMB      59              0.0000000000
      7265        59  23SM      O3            -30.1273952692        1.8098408625       21.9361700741  MEMB      59              0.0000000000
      7266        59  23SM      HO3           -30.2828967009        2.6132900244       22.4380551585  MEMB      59              0.0000000000
      7267        59  23SM      C4S           -30.6833553244        1.7418644522       19.6528555147  MEMB      59              0.0000000000
      7268        59  23SM      H4S           -30.5094689363        2.7915287194       19.3736275598  MEMB      59              0.0000000000
      7269        59  23SM      C5S           -30.4080908319        0.7858395360       18.6986415411  MEMB      59              0.0000000000
      7270        59  23SM      H5S           -30.6536160242       -0.2537815239       18.9611396971  MEMB      59              0.0000000000
      7271        59  23SM      C6S           -29.8968168717        1.0437870619       17.3039471544  MEMB      59              0.0000000000
      7272        59  23SM      H6S           -30.5029997827        0.4259369654       16.6074389067  MEMB      59              0.0000000000
      7273        59  23SM      H6T           -28.8770393477        0.6128767131       17.2107203772  MEMB      59              0.0000000000
      7274        59  23SM      C7S           -30.0619293727        2.4806768460       16.7374173319  MEMB      59              0.0000000000
      7275        59  23SM      H7S           -29.2517105256        3.1326072349       17.1283827713  MEMB      59              0.0000000000
      7276        59  23SM      H7T           -31.0726532858        2.8991057255       16.9315194674  MEMB      59              0.0000000000
      7277        59  23SM      C8S           -29.9262306645        2.5675371889       15.2313997823  MEMB      59              0.0000000000
      7278        59  23SM      H8S           -29.2191125587        1.8015170068       14.8473185105  MEMB      59              0.0000000000
      7279        59  23SM      H8T           -29.4003500246        3.5225522401       15.0175843848  MEMB      59              0.0000000000
      7280        59  23SM      C9S           -31.2109878156        2.5586822152       14.4220399440  MEMB      59              0.0000000000
      7281        59  23SM      H9S           -31.9442359866        3.3894739824       14.5023727251  MEMB      59              0.0000000000
      7282        59  23SM      H9T           -31.6790987602        1.6147972588       14.7745654271  MEMB      59              0.0000000000
      7283        59  23SM      C10S          -30.7869400816        2.3762638289       12.9677020015  MEMB      59              0.0000000000
      7284        59  23SM      H10S          -30.0351144350        1.5795520290       12.7824182317  MEMB      59              0.0000000000
      7285        59  23SM      H10T          -30.1710163327        3.2279187763       12.6076421118  MEMB      59              0.0000000000
      7286        59  23SM      C11S          -31.9018228079        2.2442284114       11.9263674091  MEMB      59              0.0000000000
      7287        59  23SM      H11S          -32.6263573900        3.0834736518       11.9973467378  MEMB      59              0.0000000000
      7288        59  23SM      H11T          -32.4718245453        1.3074689397       12.1049752170  MEMB      59              0.0000000000
      7289        59  23SM      C12S          -31.3643673879        1.9492956150       10.5293803493  MEMB      59              0.0000000000
      7290        59  23SM      H12S          -30.6366927185        1.1146864746       10.6201454027  MEMB      59              0.0000000000
      7291        59  23SM      H12T          -30.7155882704        2.7712243104       10.1581128616  MEMB      59              0.0000000000
      7292        59  23SM      C13S          -32.4319003967        1.6148453610        9.5154129364  MEMB      59              0.0000000000
      7293        59  23SM      H13S          -33.0862583006        2.5121920275        9.4853158354  MEMB      59              0.0000000000
      7294        59  23SM      H13T          -33.0492512894        0.7937445820        9.9384882384  MEMB      59              0.0000000000
      7295        59  23SM      C14S          -31.9128327762        1.2525251835        8.1059755280  MEMB      59              0.0000000000
      7296        59  23SM      H14S          -30.9485485168        0.7217867000        8.2569514069  MEMB      59              0.0000000000
      7297        59  23SM      H14T          -31.7174572547        2.2513074788        7.6603494410  MEMB      59              0.0000000000
      7298        59  23SM      C15S          -32.7756681840        0.2852326977        7.2329904178  MEMB      59              0.0000000000
      7299        59  23SM      H15S          -33.8265217954        0.6458095778        7.2294957877  MEMB      59              0.0000000000
      7300        59  23SM      H15T          -32.7752437332       -0.7772807443        7.5576229971  MEMB      59              0.0000000000
      7301        59  23SM      C16S          -32.2486227427        0.3444545491        5.7345732806  MEMB      59              0.0000000000
      7302        59  23SM      H16S          -31.1451459436        0.2307202858        5.7956016548  MEMB      59              0.0000000000
      7303        59  23SM      H16T          -32.5761307695        1.3323661666        5.3458705893  MEMB      59              0.0000000000
      7304        59  23SM      C17S          -33.0593477354       -0.5946950861        4.8746875695  MEMB      59              0.0000000000
      7305        59  23SM      H17S          -34.1023544121       -0.2277137224        4.9832383764  MEMB      59              0.0000000000
      7306        59  23SM      H17T          -33.2670968911       -1.6393241586        5.1907757901  MEMB      59              0.0000000000
      7307        59  23SM      C18S          -32.5783352758       -0.5312368688        3.4613037592  MEMB      59              0.0000000000
      7308        59  23SM      H18S          -31.6112485060       -1.0496445913        3.2871852982  MEMB      59              0.0000000000
      7309        59  23SM      H18T          -32.3467700973        0.5159098240        3.1711607209  MEMB      59              0.0000000000
      7310        59  23SM      H18U          -33.2130410266       -1.0763273365        2.7303141466  MEMB      59              0.0000000000
      7311        59  23SM      C1F           -34.2520168916        3.4548715394       20.0329284289  MEMB      59              0.0000000000
      7312        59  23SM      OF            -34.0994054273        4.6147707417       20.4815653964  MEMB      59              0.0000000000
      7313        59  23SM      C2F           -35.3783278760        3.1572158508       19.0441677389  MEMB      59              0.0000000000
      7314        59  23SM      H2F           -36.0310848557        2.2977408909       19.3078575654  MEMB      59              0.0000000000
      7315        59  23SM      H2G           -34.9461406592        2.8263326570       18.0756374230  MEMB      59              0.0000000000
      7316        59  23SM      C3F           -36.2860608674        4.3162585225       18.8514399661  MEMB      59              0.0000000000
      7317        59  23SM      H3F           -35.7875188480        5.0838125781       18.2216480555  MEMB      59              0.0000000000
      7318        59  23SM      H3G           -36.6298273750        4.6022334798       19.8684769150  MEMB      59              0.0000000000
      7319        59  23SM      C4F           -37.5166891320        4.1289604382       18.0049151153  MEMB      59              0.0000000000
      7320        59  23SM      H4F           -38.1893592601        4.9947071858       18.1846891838  MEMB      59              0.0000000000
      7321        59  23SM      H4G           -38.0356809235        3.2252821605       18.3900567980  MEMB      59              0.0000000000
      7322        59  23SM      C5F           -37.2677688217        3.8535477429       16.4695187399  MEMB      59              0.0000000000
      7323        59  23SM      H5F           -38.1959710118        3.7672248542       15.8651099445  MEMB      59              0.0000000000
      7324        59  23SM      H5G           -36.8908022111        2.8100488981       16.4118366279  MEMB      59              0.0000000000
      7325        59  23SM      C6F           -36.3961249024        4.8685270747       15.7038822365  MEMB      59              0.0000000000
      7326        59  23SM      H6F           -36.2995763913        4.4859015134       14.6653269365  MEMB      59              0.0000000000
      7327        59  23SM      H6G           -35.4226874462        5.0446612972       16.2095675181  MEMB      59              0.0000000000
      7328        59  23SM      C7F           -37.1405447076        6.2060468473       15.5252005645  MEMB      59              0.0000000000
      7329        59  23SM      H7F           -37.2756771797        6.5596787656       16.5697117286  MEMB      59              0.0000000000
      7330        59  23SM      H7G           -38.1561702268        6.1163562457       15.0838603505  MEMB      59              0.0000000000
      7331        59  23SM      C8F           -36.2880250748        7.3113797300       14.8154435451  MEMB      59              0.0000000000
      7332        59  23SM      H8F           -35.3896649783        7.3452965079       15.4682220781  MEMB      59              0.0000000000
      7333        59  23SM      H8G           -36.6702986922        8.3456758072       14.6797279125  MEMB      59              0.0000000000
      7334        59  23SM      C9F           -35.8451746730        6.9223928703       13.4204014676  MEMB      59              0.0000000000
      7335        59  23SM      H9F           -35.2122163414        6.0238388634       13.5825303193  MEMB      59              0.0000000000
      7336        59  23SM      H9G           -35.1816339863        7.7432080555       13.0735627131  MEMB      59              0.0000000000
      7337        59  23SM      C10F          -36.9562703197        6.7577999606       12.4083510619  MEMB      59              0.0000000000
      7338        59  23SM      H10F          -37.5237771739        7.7127255184       12.3889989862  MEMB      59              0.0000000000
      7339        59  23SM      H10G          -37.6279182159        5.9557921506       12.7825085307  MEMB      59              0.0000000000
      7340        59  23SM      C11F          -36.4363925361        6.3355986049       10.9756550262  MEMB      59              0.0000000000
      7341        59  23SM      H11F          -37.3173208915        6.2409515504       10.3053354892  MEMB      59              0.0000000000
      7342        59  23SM      H11G          -35.9720984097        5.3518517024       11.2014747951  MEMB      59              0.0000000000
      7343        59  23SM      C12F          -35.3536927509        7.2140659065       10.2552599770  MEMB      59              0.0000000000
      7344        59  23SM      H12F          -34.3496640440        7.1188286348       10.7212827322  MEMB      59              0.0000000000
      7345        59  23SM      H12G          -35.7349584623        8.2416464861       10.4370173614  MEMB      59              0.0000000000
      7346        59  23SM      C13F          -35.2458993189        7.0199604330        8.6970853787  MEMB      59              0.0000000000
      7347        59  23SM      H13F          -34.6008048448        7.7706005722        8.1923935584  MEMB      59              0.0000000000
      7348        59  23SM      H13G          -36.2716438142        7.2200696408        8.3200904474  MEMB      59              0.0000000000
      7349        59  23SM      C14F          -34.8795067836        5.5767595080        8.3093205081  MEMB      59              0.0000000000
      7350        59  23SM      H14F          -35.5290011345        4.8297055674        8.8136912296  MEMB      59              0.0000000000
      7351        59  23SM      H14G          -33.8357937192        5.3847417721        8.6381277363  MEMB      59              0.0000000000
      7352        59  23SM      C15F          -35.0481813993        5.4451806783        6.8290757103  MEMB      59              0.0000000000
      7353        59  23SM      H15F          -34.2858219938        6.1348991018        6.4078664643  MEMB      59              0.0000000000
      7354        59  23SM      H15G          -36.0283312915        5.8248566042        6.4692511632  MEMB      59              0.0000000000
      7355        59  23SM      C16F          -34.7613770449        4.0245966973        6.2162908281  MEMB      59              0.0000000000
      7356        59  23SM      H16F          -35.6000753489        3.4370266295        6.6471815537  MEMB      59              0.0000000000
      7357        59  23SM      H16G          -33.7172977907        3.8177977482        6.5348085523  MEMB      59              0.0000000000
      7358        59  23SM      C17F          -34.8336418852        3.9284150558        4.7930086967  MEMB      59              0.0000000000
      7359        59  23SM      H17F          -34.5348828128        2.9081025736        4.4704753113  MEMB      59              0.0000000000
      7360        59  23SM      H17G          -34.1445351832        4.6737947760        4.3414966926  MEMB      59              0.0000000000
      7361        59  23SM      C18F          -36.2752426889        4.3460987899        4.2033814301  MEMB      59              0.0000000000
      7362        59  23SM      H18F          -36.4142389442        5.4382528247        4.0543831142  MEMB      59              0.0000000000
      7363        59  23SM      H18G          -37.1441737256        3.9123630472        4.7429660126  MEMB      59              0.0000000000
      7364        59  23SM      C19F          -36.5003507396        3.6780586676        2.8201454803  MEMB      59              0.0000000000
      7365        59  23SM      H19F          -37.2875492851        4.1501673601        2.1942433242  MEMB      59              0.0000000000
      7366        59  23SM      H19G          -36.8132686031        2.6140900857        2.8862833771  MEMB      59              0.0000000000
      7367        59  23SM      C20F          -35.2721585184        3.6787541794        2.0103454642  MEMB      59              0.0000000000
      7368        59  23SM      H20F          -34.5888896864        2.8915611523        2.3947825269  MEMB      59              0.0000000000
      7369        59  23SM      H20G          -34.7971341204        4.6830790483        2.0124770163  MEMB      59              0.0000000000
      7370        59  23SM      C21F          -35.7032257652        3.2921625745        0.5605481714  MEMB      59              0.0000000000
      7371        59  23SM      H21F          -36.1489856893        4.2268714137        0.1581327158  MEMB      59              0.0000000000
      7372        59  23SM      H21G          -36.5009307931        2.5234150787        0.6443029402  MEMB      59              0.0000000000
      7373        59  23SM      C22F          -34.5719373979        2.8597449345       -0.3810804624  MEMB      59              0.0000000000
      7374        59  23SM      H22F          -35.0437777047        2.6434774106       -1.3633815866  MEMB      59              0.0000000000
      7375        59  23SM      H22G          -34.1675722575        1.8892758629       -0.0219157385  MEMB      59              0.0000000000
      7376        59  23SM      C23F          -33.4832834288        3.9344387318       -0.7844294664  MEMB      59              0.0000000000
      7377        59  23SM      H23F          -32.6983314898        4.1971752183       -0.0433890844  MEMB      59              0.0000000000
      7378        59  23SM      H23G          -34.0022914690        4.9051424437       -0.9350473652  MEMB      59              0.0000000000
      7379        59  23SM      H23H          -33.1700083785        3.5013587053       -1.7584017131  MEMB      59              0.0000000000
      7380        60  23SM      N              29.2470106238       16.0126960134       27.0847838466  MEMB      60              0.0000000000
      7381        60  23SM      C15            28.6276884944       15.4403284119       28.4040689062  MEMB      60              0.0000000000
      7382        60  23SM      H15A           27.7525875190       14.8318687041       28.2297833439  MEMB      60              0.0000000000
      7383        60  23SM      H15B           28.3170039286       16.2668743282       29.0259184542  MEMB      60              0.0000000000
      7384        60  23SM      H15C           29.4377906991       14.7886550844       28.6963975572  MEMB      60              0.0000000000
      7385        60  23SM      C14            29.3098263588       14.7415301588       26.2238286017  MEMB      60              0.0000000000
      7386        60  23SM      H14A           29.5896962753       15.0348572427       25.2228131002  MEMB      60              0.0000000000
      7387        60  23SM      H14B           28.3484952960       14.2523902941       26.1691961011  MEMB      60              0.0000000000
      7388        60  23SM      H14C           29.9988082260       14.0942341822       26.7460470748  MEMB      60              0.0000000000
      7389        60  23SM      C13            28.2839388732       17.0090724731       26.5124914616  MEMB      60              0.0000000000
      7390        60  23SM      H13A           28.1392687321       17.8226672670       27.2078576664  MEMB      60              0.0000000000
      7391        60  23SM      H13B           27.3288157772       16.5637215016       26.2762646327  MEMB      60              0.0000000000
      7392        60  23SM      H13C           28.7017769028       17.2766657797       25.5532183056  MEMB      60              0.0000000000
      7393        60  23SM      C12            30.5710611086       16.7445313214       27.4393893883  MEMB      60              0.0000000000
      7394        60  23SM      H12A           31.0040286516       16.0824353219       28.1746226253  MEMB      60              0.0000000000
      7395        60  23SM      H12B           30.2881978294       17.6524776718       27.9512700665  MEMB      60              0.0000000000
      7396        60  23SM      C11            31.5438123072       17.1309026917       26.3747960733  MEMB      60              0.0000000000
      7397        60  23SM      H11A           32.3385795019       17.6172658772       26.9798720875  MEMB      60              0.0000000000
      7398        60  23SM      H11B           31.1379238049       17.9629713708       25.7605996740  MEMB      60              0.0000000000
      7399        60  23SM      P              33.4588747329       16.1159838659       24.8288540742  MEMB      60              0.0000000000
      7400        60  23SM      O13            34.3878611055       17.0308302831       25.5261215259  MEMB      60              0.0000000000
      7401        60  23SM      O14            33.8668720013       14.6714402195       24.5862638813  MEMB      60              0.0000000000
      7402        60  23SM      O11            33.1455197825       16.7985755623       23.4593440209  MEMB      60              0.0000000000
      7403        60  23SM      O12            32.0853053492       16.0737103425       25.5600582234  MEMB      60              0.0000000000
      7404        60  23SM      C1S            32.0089940063       16.4094192207       22.6646828146  MEMB      60              0.0000000000
      7405        60  23SM      H1S            31.2376880990       17.1970413868       22.5266270191  MEMB      60              0.0000000000
      7406        60  23SM      H1T            31.5624885487       15.4784132428       23.0747823128  MEMB      60              0.0000000000
      7407        60  23SM      NF             33.1461558423       14.9664205064       20.9261846941  MEMB      60              0.0000000000
      7408        60  23SM      HNF            34.1319324638       15.0354617817       20.7939464060  MEMB      60              0.0000000000
      7409        60  23SM      C2S            32.4490029176       16.1905079030       21.1062119088  MEMB      60              0.0000000000
      7410        60  23SM      H2S            31.6025570825       16.1869294666       20.3866025669  MEMB      60              0.0000000000
      7411        60  23SM      C3S            33.3547791413       17.3086679560       20.7841547756  MEMB      60              0.0000000000
      7412        60  23SM      H3S            34.3020765241       17.2510096215       21.3617569491  MEMB      60              0.0000000000
      7413        60  23SM      O3             32.7457830348       18.5677264252       20.9846142112  MEMB      60              0.0000000000
      7414        60  23SM      HO3            32.0227085902       18.4645190630       21.6075998592  MEMB      60              0.0000000000
      7415        60  23SM      C4S            33.7880135534       17.2580174909       19.3349003160  MEMB      60              0.0000000000
      7416        60  23SM      H4S            33.0180930247       17.6309129686       18.6434010969  MEMB      60              0.0000000000
      7417        60  23SM      C5S            35.0707198764       17.0358082240       18.9185525676  MEMB      60              0.0000000000
      7418        60  23SM      H5S            35.8229075960       16.6236332714       19.6072656140  MEMB      60              0.0000000000
      7419        60  23SM      C6S            35.5517480367       17.0324459908       17.4638886532  MEMB      60              0.0000000000
      7420        60  23SM      H6S            35.7618706971       15.9832377064       17.1650049644  MEMB      60              0.0000000000
      7421        60  23SM      H6T            36.5526283905       17.5146546981       17.4580360236  MEMB      60              0.0000000000
      7422        60  23SM      C7S            34.6359881874       17.5021604813       16.3104417960  MEMB      60              0.0000000000
      7423        60  23SM      H7S            34.4172503366       18.5777329190       16.4825438047  MEMB      60              0.0000000000
      7424        60  23SM      H7T            33.7703656957       16.8092029374       16.3799311968  MEMB      60              0.0000000000
      7425        60  23SM      C8S            35.1447480397       17.2677256977       14.8767269843  MEMB      60              0.0000000000
      7426        60  23SM      H8S            35.3974179493       16.1938306669       14.7454696391  MEMB      60              0.0000000000
      7427        60  23SM      H8T            36.1359461736       17.6999904124       14.6217869904  MEMB      60              0.0000000000
      7428        60  23SM      C9S            34.2145064657       17.7467455068       13.7960628594  MEMB      60              0.0000000000
      7429        60  23SM      H9S            34.0093410298       18.8280484006       13.9477603813  MEMB      60              0.0000000000
      7430        60  23SM      H9T            33.3338019589       17.0796782601       13.9131182211  MEMB      60              0.0000000000
      7431        60  23SM      C10S           34.8130895224       17.5906897056       12.3369018177  MEMB      60              0.0000000000
      7432        60  23SM      H10S           35.0826564929       16.5726102708       11.9831098080  MEMB      60              0.0000000000
      7433        60  23SM      H10T           35.7190561193       18.2302044360       12.2693280819  MEMB      60              0.0000000000
      7434        60  23SM      C11S           33.8495712102       18.0969668523       11.2317127395  MEMB      60              0.0000000000
      7435        60  23SM      H11S           33.7094084723       19.1812811568       11.4290399188  MEMB      60              0.0000000000
      7436        60  23SM      H11T           32.8472476428       17.6177787837       11.2385933258  MEMB      60              0.0000000000
      7437        60  23SM      C12S           34.4752963753       17.9120268401        9.7902917900  MEMB      60              0.0000000000
      7438        60  23SM      H12S           34.5178143438       16.8152164993        9.6184764265  MEMB      60              0.0000000000
      7439        60  23SM      H12T           35.4301320342       18.4477616730        9.6016156581  MEMB      60              0.0000000000
      7440        60  23SM      C13S           33.5805081140       18.5510415623        8.6875520075  MEMB      60              0.0000000000
      7441        60  23SM      H13S           33.4578018747       19.6302697649        8.9210697918  MEMB      60              0.0000000000
      7442        60  23SM      H13T           32.6011880867       18.0266024887        8.7022685839  MEMB      60              0.0000000000
      7443        60  23SM      C14S           34.1707894329       18.3507143750        7.2983212190  MEMB      60              0.0000000000
      7444        60  23SM      H14S           34.3852323995       17.2698041645        7.1570133777  MEMB      60              0.0000000000
      7445        60  23SM      H14T           35.0958443138       18.9658164090        7.3139340362  MEMB      60              0.0000000000
      7446        60  23SM      C15S           33.2032620549       18.9074113944        6.2917135369  MEMB      60              0.0000000000
      7447        60  23SM      H15S           32.8880881763       19.8961722849        6.6883737874  MEMB      60              0.0000000000
      7448        60  23SM      H15T           32.2896421350       18.2915481757        6.1491224385  MEMB      60              0.0000000000
      7449        60  23SM      C16S           33.9258941114       19.1684428148        4.9922923659  MEMB      60              0.0000000000
      7450        60  23SM      H16S           34.2558711348       18.1853241513        4.5936526320  MEMB      60              0.0000000000
      7451        60  23SM      H16T           34.8166396308       19.7831588053        5.2433254052  MEMB      60              0.0000000000
      7452        60  23SM      C17S           33.1469667470       19.8973362258        3.8319956790  MEMB      60              0.0000000000
      7453        60  23SM      H17S           32.5948933369       20.7468111796        4.2879870458  MEMB      60              0.0000000000
      7454        60  23SM      H17T           32.3526645297       19.1953250636        3.4994531668  MEMB      60              0.0000000000
      7455        60  23SM      C18S           34.0051571932       20.3940472888        2.6988899536  MEMB      60              0.0000000000
      7456        60  23SM      H18S           35.0778562285       20.1213265542        2.7951254944  MEMB      60              0.0000000000
      7457        60  23SM      H18T           33.9380267556       21.4981734401        2.5953531700  MEMB      60              0.0000000000
      7458        60  23SM      H18U           33.6797511832       19.9047958076        1.7559875583  MEMB      60              0.0000000000
      7459        60  23SM      C1F            32.5637196139       13.7601326399       20.9939322757  MEMB      60              0.0000000000
      7460        60  23SM      OF             31.5857033306       13.4837991136       21.6881235227  MEMB      60              0.0000000000
      7461        60  23SM      C2F            33.0924458518       12.6958787470       20.0124597608  MEMB      60              0.0000000000
      7462        60  23SM      H2F            33.6711733145       11.9679316706       20.6203155164  MEMB      60              0.0000000000
      7463        60  23SM      H2G            33.7736546367       13.2717474033       19.3501525114  MEMB      60              0.0000000000
      7464        60  23SM      C3F            31.8019812065       12.2203700611       19.2638285134  MEMB      60              0.0000000000
      7465        60  23SM      H3F            31.2737183333       13.1062333284       18.8509059974  MEMB      60              0.0000000000
      7466        60  23SM      H3G            31.0745621171       11.7764624599       19.9766600242  MEMB      60              0.0000000000
      7467        60  23SM      C4F            32.0112311453       11.2147763892       18.2052487740  MEMB      60              0.0000000000
      7468        60  23SM      H4F            31.0382029988       10.8109502301       17.8524579034  MEMB      60              0.0000000000
      7469        60  23SM      H4G            32.6463412257       10.4002496408       18.6145192595  MEMB      60              0.0000000000
      7470        60  23SM      C5F            32.5919198189       11.6828536357       16.8857519835  MEMB      60              0.0000000000
      7471        60  23SM      H5F            32.0094168651       12.5296929129       16.4639998703  MEMB      60              0.0000000000
      7472        60  23SM      H5G            32.3682209040       10.8360185636       16.2022684844  MEMB      60              0.0000000000
      7473        60  23SM      C6F            34.0506185454       12.0708652374       16.9677075789  MEMB      60              0.0000000000
      7474        60  23SM      H6F            34.5935796923       11.4565866344       17.7174914601  MEMB      60              0.0000000000
      7475        60  23SM      H6G            34.1195160736       13.1661201266       17.1408863726  MEMB      60              0.0000000000
      7476        60  23SM      C7F            34.8107343643       12.0896766820       15.6345484914  MEMB      60              0.0000000000
      7477        60  23SM      H7F            34.5745330335       11.1697011708       15.0582019113  MEMB      60              0.0000000000
      7478        60  23SM      H7G            35.9064526483       12.0533557994       15.8145575350  MEMB      60              0.0000000000
      7479        60  23SM      C8F            34.4866633208       13.3475307597       14.8104177606  MEMB      60              0.0000000000
      7480        60  23SM      H8F            34.8750788290       14.1496554174       15.4737807951  MEMB      60              0.0000000000
      7481        60  23SM      H8G            33.4031835682       13.5922682943       14.7881422071  MEMB      60              0.0000000000
      7482        60  23SM      C9F            35.0787274086       13.5288149596       13.3488961717  MEMB      60              0.0000000000
      7483        60  23SM      H9F            34.7149291203       14.4691963674       12.8823613264  MEMB      60              0.0000000000
      7484        60  23SM      H9G            34.6631438428       12.7715585862       12.6502019242  MEMB      60              0.0000000000
      7485        60  23SM      C10F           36.6029300627       13.5689665711       13.2598432369  MEMB      60              0.0000000000
      7486        60  23SM      H10F           36.9247202158       12.5095418838       13.3514475602  MEMB      60              0.0000000000
      7487        60  23SM      H10G           36.8163217224       14.2339298272       14.1239081380  MEMB      60              0.0000000000
      7488        60  23SM      C11F           37.0488346082       14.2929067656       12.0076606521  MEMB      60              0.0000000000
      7489        60  23SM      H11F           38.1517398762       14.1709329110       11.9524989915  MEMB      60              0.0000000000
      7490        60  23SM      H11G           36.6172251944       15.3098502608       12.1253907717  MEMB      60              0.0000000000
      7491        60  23SM      C12F           36.4883850670       13.6343905939       10.7799274376  MEMB      60              0.0000000000
      7492        60  23SM      H12F           35.3859473162       13.7717848016       10.7885690006  MEMB      60              0.0000000000
      7493        60  23SM      H12G           36.7452675870       12.5553704910       10.8435540869  MEMB      60              0.0000000000
      7494        60  23SM      C13F           36.9468147833       14.1480285478        9.4448969970  MEMB      60              0.0000000000
      7495        60  23SM      H13F           38.0326897729       13.9138794421        9.4641499912  MEMB      60              0.0000000000
      7496        60  23SM      H13G           36.8024049044       15.2418584715        9.5752923973  MEMB      60              0.0000000000
      7497        60  23SM      C14F           36.2799099191       13.5800280882        8.1833957016  MEMB      60              0.0000000000
      7498        60  23SM      H14F           36.6355542661       12.5294416329        8.1193201049  MEMB      60              0.0000000000
      7499        60  23SM      H14G           36.5467239890       14.0951729395        7.2358960240  MEMB      60              0.0000000000
      7500        60  23SM      C15F           34.7233007864       13.7272651759        8.2519937441  MEMB      60              0.0000000000
      7501        60  23SM      H15F           34.4910862412       14.7481129424        8.6238372270  MEMB      60              0.0000000000
      7502        60  23SM      H15G           34.3349636964       12.9920816984        8.9888921983  MEMB      60              0.0000000000
      7503        60  23SM      C16F           34.0486197213       13.7403250965        6.8992550340  MEMB      60              0.0000000000
      7504        60  23SM      H16F           34.5764389145       12.9537341954        6.3187346932  MEMB      60              0.0000000000
      7505        60  23SM      H16G           34.2596909916       14.7110678188        6.4018329217  MEMB      60              0.0000000000
      7506        60  23SM      C17F           32.5173492783       13.3341446959        7.0514260881  MEMB      60              0.0000000000
      7507        60  23SM      H17F           31.9850217621       14.0222190515        7.7424422302  MEMB      60              0.0000000000
      7508        60  23SM      H17G           32.4929698433       12.3108005582        7.4832759662  MEMB      60              0.0000000000
      7509        60  23SM      C18F           31.7298408496       13.4431244910        5.7631411593  MEMB      60              0.0000000000
      7510        60  23SM      H18F           30.7469896161       12.9404108007        5.8880563502  MEMB      60              0.0000000000
      7511        60  23SM      H18G           32.2227582805       12.8179759861        4.9881923777  MEMB      60              0.0000000000
      7512        60  23SM      C19F           31.3161103374       14.8511748879        5.4078572389  MEMB      60              0.0000000000
      7513        60  23SM      H19F           32.2304134930       15.4823298094        5.4040952814  MEMB      60              0.0000000000
      7514        60  23SM      H19G           30.5457059776       15.0530820642        6.1824734535  MEMB      60              0.0000000000
      7515        60  23SM      C20F           30.6013367204       14.9146459257        4.0179033321  MEMB      60              0.0000000000
      7516        60  23SM      H20F           30.0696598564       15.8889532415        3.9692615274  MEMB      60              0.0000000000
      7517        60  23SM      H20G           29.8536214643       14.0980190128        3.9264529564  MEMB      60              0.0000000000
      7518        60  23SM      C21F           31.6886077595       14.7812272665        2.8247156468  MEMB      60              0.0000000000
      7519        60  23SM      H21F           31.9017379372       13.6956169971        2.7229953382  MEMB      60              0.0000000000
      7520        60  23SM      H21G           32.5481713123       15.3887658041        3.1801982382  MEMB      60              0.0000000000
      7521        60  23SM      C22F           31.2077925240       15.3614864996        1.4451934089  MEMB      60              0.0000000000
      7522        60  23SM      H22F           31.0189498150       16.4368033776        1.6509916716  MEMB      60              0.0000000000
      7523        60  23SM      H22G           30.2781516522       14.7927196054        1.2293382406  MEMB      60              0.0000000000
      7524        60  23SM      C23F           32.2165612451       15.3232879445        0.3637659893  MEMB      60              0.0000000000
      7525        60  23SM      H23F           31.9745865483       16.0358236090       -0.4535847104  MEMB      60              0.0000000000
      7526        60  23SM      H23G           32.3770121988       14.3213645279       -0.0887011752  MEMB      60              0.0000000000
      7527        60  23SM      H23H           33.2196949218       15.6653072011        0.6970327668  MEMB      60              0.0000000000
      7528        61  DOPE      N             -33.5369103434       -1.1758210691       21.5028130006  MEMB      61              0.0000000000
      7529        61  DOPE      HN1           -33.3355241651       -0.5267636863       20.7155595456  MEMB      61              0.0000000000
      7530        61  DOPE      HN2           -34.3480849896       -0.8736072414       22.0792351109  MEMB      61              0.0000000000
      7531        61  DOPE      HN3           -32.7318630053       -1.2258239881       22.1593176614  MEMB      61              0.0000000000
      7532        61  DOPE      C12           -33.8276240809       -2.5546062697       21.0163755385  MEMB      61              0.0000000000
      7533        61  DOPE      H12A          -34.7211208588       -2.5575552084       20.3560910359  MEMB      61              0.0000000000
      7534        61  DOPE      H12B          -34.1123248396       -3.1014753094       21.9406051977  MEMB      61              0.0000000000
      7535        61  DOPE      C11           -32.5888163949       -3.1256231087       20.3419682416  MEMB      61              0.0000000000
      7536        61  DOPE      H11A          -32.8268908861       -4.2004798109       20.1925544341  MEMB      61              0.0000000000
      7537        61  DOPE      H11B          -31.6755495764       -3.0500315098       20.9701007683  MEMB      61              0.0000000000
      7538        61  DOPE      P             -32.5747957597       -3.2009384088       17.7298501413  MEMB      61              0.0000000000
      7539        61  DOPE      O13           -31.4210497616       -4.1163360687       17.4174461010  MEMB      61              0.0000000000
      7540        61  DOPE      O14           -32.8772359212       -2.1957265569       16.6917863617  MEMB      61              0.0000000000
      7541        61  DOPE      O11           -33.8718146263       -4.0592556667       18.1580397453  MEMB      61              0.0000000000
      7542        61  DOPE      O12           -32.2623666739       -2.4723527233       19.1417208954  MEMB      61              0.0000000000
      7543        61  DOPE      C1            -33.9740134892       -5.3198607223       17.6490089577  MEMB      61              0.0000000000
      7544        61  DOPE      HA            -34.5660641614       -5.9362438739       18.3588461546  MEMB      61              0.0000000000
      7545        61  DOPE      HB            -33.0681065091       -5.9601337038       17.7098693359  MEMB      61              0.0000000000
      7546        61  DOPE      C2            -34.6317465219       -5.3792332736       16.1660883245  MEMB      61              0.0000000000
      7547        61  DOPE      HS            -34.9322078114       -6.4237766785       15.9359300850  MEMB      61              0.0000000000
      7548        61  DOPE      O21           -33.8156562328       -4.8011321728       15.1883109817  MEMB      61              0.0000000000
      7549        61  DOPE      C21           -33.8951740231       -5.5017293310       14.0683002785  MEMB      61              0.0000000000
      7550        61  DOPE      O22           -34.6702355267       -6.3929454592       13.7652815788  MEMB      61              0.0000000000
      7551        61  DOPE      C22           -32.6834731215       -4.9545896669       13.2138644747  MEMB      61              0.0000000000
      7552        61  DOPE      H2R           -32.1942668015       -4.1274101172       13.7713341810  MEMB      61              0.0000000000
      7553        61  DOPE      H2S           -33.0995626741       -4.5359494395       12.2726253041  MEMB      61              0.0000000000
      7554        61  DOPE      C3            -35.9467158818       -4.5379407275       16.1652274659  MEMB      61              0.0000000000
      7555        61  DOPE      HX            -35.7606788991       -3.4556529207       16.3336448473  MEMB      61              0.0000000000
      7556        61  DOPE      HY            -36.5185090481       -4.9339580771       17.0315668191  MEMB      61              0.0000000000
      7557        61  DOPE      O31           -36.6755960555       -4.5613881019       15.0174445542  MEMB      61              0.0000000000
      7558        61  DOPE      C31           -37.9485242260       -4.1647079458       15.1316553607  MEMB      61              0.0000000000
      7559        61  DOPE      O32           -38.3288046102       -3.4978114228       16.0272421369  MEMB      61              0.0000000000
      7560        61  DOPE      C32           -38.7448594257       -4.4769734820       13.8305022066  MEMB      61              0.0000000000
      7561        61  DOPE      H2X           -38.7806348324       -5.5741624476       13.6595689892  MEMB      61              0.0000000000
      7562        61  DOPE      H2Y           -39.7452993599       -4.0446077092       14.0461430014  MEMB      61              0.0000000000
      7563        61  DOPE      C23           -31.6748248631       -6.0875096702       12.8451872191  MEMB      61              0.0000000000
      7564        61  DOPE      H3R           -31.5212198556       -6.7495898918       13.7240370341  MEMB      61              0.0000000000
      7565        61  DOPE      H3S           -30.6940620997       -5.6628050426       12.5417873851  MEMB      61              0.0000000000
      7566        61  DOPE      C24           -32.2522193678       -7.0206110995       11.7402965243  MEMB      61              0.0000000000
      7567        61  DOPE      H4R           -32.7665241961       -6.3874321704       10.9860447230  MEMB      61              0.0000000000
      7568        61  DOPE      H4S           -33.0122208540       -7.7198212907       12.1499594710  MEMB      61              0.0000000000
      7569        61  DOPE      C25           -31.1418259086       -7.7453771739       10.9345902378  MEMB      61              0.0000000000
      7570        61  DOPE      H5R           -31.0618943602       -8.8153509308       11.2228402852  MEMB      61              0.0000000000
      7571        61  DOPE      H5S           -30.1621834835       -7.2307385673       11.0334271607  MEMB      61              0.0000000000
      7572        61  DOPE      C26           -31.4887332145       -7.8142835208        9.4414842386  MEMB      61              0.0000000000
      7573        61  DOPE      H6R           -30.7263493861       -8.5424561464        9.0909760847  MEMB      61              0.0000000000
      7574        61  DOPE      H6S           -31.2634257244       -6.8071430398        9.0301138727  MEMB      61              0.0000000000
      7575        61  DOPE      C27           -32.9225229999       -8.1858097722        9.1134225919  MEMB      61              0.0000000000
      7576        61  DOPE      H7R           -33.5886415161       -7.4448845290        9.6049888895  MEMB      61              0.0000000000
      7577        61  DOPE      H7S           -33.0487068198       -9.1453519192        9.6590215705  MEMB      61              0.0000000000
      7578        61  DOPE      C28           -33.1512237690       -8.3716900765        7.6212144711  MEMB      61              0.0000000000
      7579        61  DOPE      H8R           -34.2153390376       -8.6719770329        7.5125535304  MEMB      61              0.0000000000
      7580        61  DOPE      H8S           -32.5816712860       -9.2193427285        7.1837037869  MEMB      61              0.0000000000
      7581        61  DOPE      C29           -33.0024027053       -7.0594963088        6.9048642316  MEMB      61              0.0000000000
      7582        61  DOPE      H9R           -33.8195698898       -6.3881340396        7.2073714025  MEMB      61              0.0000000000
      7583        61  DOPE      C210          -31.9607071503       -6.7216243260        6.1377264771  MEMB      61              0.0000000000
      7584        61  DOPE      H10R          -31.8250814220       -5.7294389576        5.6825632736  MEMB      61              0.0000000000
      7585        61  DOPE      C211          -30.8264446435       -7.5760664164        5.8731717803  MEMB      61              0.0000000000
      7586        61  DOPE      H11R          -30.8156863351       -8.4114252040        6.6055522609  MEMB      61              0.0000000000
      7587        61  DOPE      H11S          -29.8300842099       -7.0946882230        5.9724785864  MEMB      61              0.0000000000
      7588        61  DOPE      C212          -30.9302993977       -8.1421312277        4.4671728582  MEMB      61              0.0000000000
      7589        61  DOPE      H12R          -31.9517249564       -8.4567043640        4.1637680996  MEMB      61              0.0000000000
      7590        61  DOPE      H12S          -30.2578664655       -9.0226938913        4.3849295901  MEMB      61              0.0000000000
      7591        61  DOPE      C213          -30.6309244627       -7.2404360435        3.2575073387  MEMB      61              0.0000000000
      7592        61  DOPE      H13R          -29.9085830592       -7.7951722254        2.6212589382  MEMB      61              0.0000000000
      7593        61  DOPE      H13S          -30.3337721045       -6.2526722237        3.6702348916  MEMB      61              0.0000000000
      7594        61  DOPE      C214          -31.8367216689       -6.8263237958        2.4012896258  MEMB      61              0.0000000000
      7595        61  DOPE      H14R          -31.4812334061       -6.1235589156        1.6176621750  MEMB      61              0.0000000000
      7596        61  DOPE      H14S          -32.5852485617       -6.2450114799        2.9810331399  MEMB      61              0.0000000000
      7597        61  DOPE      C215          -32.5012360471       -7.9329304647        1.6153345055  MEMB      61              0.0000000000
      7598        61  DOPE      H15R          -32.6989392228       -8.8867515728        2.1496190171  MEMB      61              0.0000000000
      7599        61  DOPE      H15S          -31.7208653950       -8.0771368980        0.8378083357  MEMB      61              0.0000000000
      7600        61  DOPE      C216          -33.8972556186       -7.5854525320        1.0667926533  MEMB      61              0.0000000000
      7601        61  DOPE      H16R          -34.6760800223       -7.2366343126        1.7781864104  MEMB      61              0.0000000000
      7602        61  DOPE      H16S          -34.2308240707       -8.5400221514        0.6065200718  MEMB      61              0.0000000000
      7603        61  DOPE      C217          -33.8923190713       -6.6538861779       -0.1186710365  MEMB      61              0.0000000000
      7604        61  DOPE      H17R          -33.6307718137       -5.6688397961        0.3235908269  MEMB      61              0.0000000000
      7605        61  DOPE      H17S          -34.8815024852       -6.6251291727       -0.6236571864  MEMB      61              0.0000000000
      7606        61  DOPE      C218          -33.0041192123       -7.0815006897       -1.2616647384  MEMB      61              0.0000000000
      7607        61  DOPE      H18R          -33.1355080721       -6.4678449122       -2.1784435161  MEMB      61              0.0000000000
      7608        61  DOPE      H18S          -33.3510189412       -8.0655077864       -1.6433856018  MEMB      61              0.0000000000
      7609        61  DOPE      H18T          -31.9099843471       -7.0505936066       -1.0713103514  MEMB      61              0.0000000000
      7610        61  DOPE      C33           -38.1498724639       -3.8146962830       12.5787500083  MEMB      61              0.0000000000
      7611        61  DOPE      H3X           -38.7117933044       -4.1646133856       11.6864921536  MEMB      61              0.0000000000
      7612        61  DOPE      H3Y           -37.0774632254       -4.0964146955       12.5087953200  MEMB      61              0.0000000000
      7613        61  DOPE      C34           -38.1679795827       -2.2475889008       12.4985090098  MEMB      61              0.0000000000
      7614        61  DOPE      H4X           -39.2006044394       -1.9510247060       12.2155656681  MEMB      61              0.0000000000
      7615        61  DOPE      H4Y           -37.9264579192       -1.8534148954       13.5087640090  MEMB      61              0.0000000000
      7616        61  DOPE      C35           -37.2302478778       -1.6846237854       11.4573776246  MEMB      61              0.0000000000
      7617        61  DOPE      H5X           -37.5492515012       -0.6468593032       11.2215759914  MEMB      61              0.0000000000
      7618        61  DOPE      H5Y           -37.3459942285       -2.2720819423       10.5215263611  MEMB      61              0.0000000000
      7619        61  DOPE      C36           -35.7260927582       -1.6331824155       11.7037899669  MEMB      61              0.0000000000
      7620        61  DOPE      H6X           -35.4361615088       -1.9318187077       12.7338761680  MEMB      61              0.0000000000
      7621        61  DOPE      H6Y           -35.3475589111       -0.5968962590       11.5728547947  MEMB      61              0.0000000000
      7622        61  DOPE      C37           -35.0019322562       -2.6076228424       10.7257492248  MEMB      61              0.0000000000
      7623        61  DOPE      H7X           -35.0571889272       -3.6083943821       11.2050447440  MEMB      61              0.0000000000
      7624        61  DOPE      H7Y           -35.6101487712       -2.5036622744        9.8018524417  MEMB      61              0.0000000000
      7625        61  DOPE      C38           -33.4598171597       -2.3533787120       10.3811606962  MEMB      61              0.0000000000
      7626        61  DOPE      H8X           -32.9221627843       -2.2522970107       11.3481307811  MEMB      61              0.0000000000
      7627        61  DOPE      H8Y           -33.4765452993       -1.3616917574        9.8805626413  MEMB      61              0.0000000000
      7628        61  DOPE      C39           -32.9708737376       -3.4884408178        9.5473374491  MEMB      61              0.0000000000
      7629        61  DOPE      H9X           -33.0642602875       -4.4766021113       10.0214851660  MEMB      61              0.0000000000
      7630        61  DOPE      C310          -32.3898721944       -3.4299526288        8.3532347616  MEMB      61              0.0000000000
      7631        61  DOPE      H10X          -32.3273448653       -4.3981912559        7.8349641184  MEMB      61              0.0000000000
      7632        61  DOPE      C311          -32.0247933042       -2.1887944147        7.6048330989  MEMB      61              0.0000000000
      7633        61  DOPE      H11X          -32.0297288470       -1.2986175573        8.2695748776  MEMB      61              0.0000000000
      7634        61  DOPE      H11Y          -30.9503959007       -2.2966588983        7.3433825831  MEMB      61              0.0000000000
      7635        61  DOPE      C312          -32.7936761028       -1.9294475197        6.3266626635  MEMB      61              0.0000000000
      7636        61  DOPE      H12X          -32.5237621709       -0.9049153993        5.9922946801  MEMB      61              0.0000000000
      7637        61  DOPE      H12Y          -33.8871364328       -1.9934710756        6.5125831641  MEMB      61              0.0000000000
      7638        61  DOPE      C313          -32.3196937296       -2.7794178857        5.0991739142  MEMB      61              0.0000000000
      7639        61  DOPE      H13X          -31.2282836830       -2.9541399312        5.2115011574  MEMB      61              0.0000000000
      7640        61  DOPE      H13Y          -32.8729656354       -3.7426638223        5.0799838605  MEMB      61              0.0000000000
      7641        61  DOPE      C314          -32.4251487476       -2.0012962403        3.8190725620  MEMB      61              0.0000000000
      7642        61  DOPE      H14X          -31.7888596191       -1.0945103078        3.9039047976  MEMB      61              0.0000000000
      7643        61  DOPE      H14Y          -33.4682153868       -1.7329943142        3.5464057322  MEMB      61              0.0000000000
      7644        61  DOPE      C315          -31.9898050207       -2.9446309780        2.6864563823  MEMB      61              0.0000000000
      7645        61  DOPE      H15X          -32.8116001853       -3.6921982330        2.6972602127  MEMB      61              0.0000000000
      7646        61  DOPE      H15Y          -31.0434780547       -3.4950687682        2.8756769093  MEMB      61              0.0000000000
      7647        61  DOPE      C316          -31.9158849051       -2.0950353133        1.4215486429  MEMB      61              0.0000000000
      7648        61  DOPE      H16X          -31.1713434706       -1.2846631443        1.5741089132  MEMB      61              0.0000000000
      7649        61  DOPE      H16Y          -32.9367891718       -1.6735745893        1.3013551373  MEMB      61              0.0000000000
      7650        61  DOPE      C317          -31.4939359849       -2.9608696590        0.2398548037  MEMB      61              0.0000000000
      7651        61  DOPE      H17X          -30.6211086830       -3.6161926776        0.4473279041  MEMB      61              0.0000000000
      7652        61  DOPE      H17Y          -32.3327940227       -3.6424555050       -0.0172035359  MEMB      61              0.0000000000
      7653        61  DOPE      C318          -31.1921741543       -2.0868821133       -1.0111700856  MEMB      61              0.0000000000
      7654        61  DOPE      H18X          -31.0970118111       -2.8179719870       -1.8422985497  MEMB      61              0.0000000000
      7655        61  DOPE      H18Y          -31.9092633856       -1.2583651869       -1.1946471763  MEMB      61              0.0000000000
      7656        61  DOPE      H18Z          -30.2338048083       -1.5569707450       -0.8239725088  MEMB      61              0.0000000000
      7657        62  DOPC      N              28.2303649747      -17.9209176320       21.0789365187  MEMB      62              0.0000000000
      7658        62  DOPC      C12            29.4287317125      -18.3107697942       20.2365878607  MEMB      62              0.0000000000
      7659        62  DOPC      H12A           29.1327400238      -19.2650015929       19.8264286757  MEMB      62              0.0000000000
      7660        62  DOPC      H12B           30.2460324055      -18.6638803783       20.8479244305  MEMB      62              0.0000000000
      7661        62  DOPC      C13            27.9702145223      -18.9677575810       22.1845310835  MEMB      62              0.0000000000
      7662        62  DOPC      H13A           27.1436146458      -18.5893663414       22.7675856004  MEMB      62              0.0000000000
      7663        62  DOPC      H13B           27.7412602414      -19.9264507639       21.7430706657  MEMB      62              0.0000000000
      7664        62  DOPC      H13C           28.8148118707      -19.1439480902       22.8341557078  MEMB      62              0.0000000000
      7665        62  DOPC      C14            27.0120756332      -17.8430263706       20.2131292192  MEMB      62              0.0000000000
      7666        62  DOPC      H14A           26.8003954367      -18.8533325731       19.8955242901  MEMB      62              0.0000000000
      7667        62  DOPC      H14B           26.1116686012      -17.5811734753       20.7489464848  MEMB      62              0.0000000000
      7668        62  DOPC      H14C           27.1850947699      -17.2566635495       19.3228241076  MEMB      62              0.0000000000
      7669        62  DOPC      C15            28.5307353803      -16.6134019635       21.7390994389  MEMB      62              0.0000000000
      7670        62  DOPC      H15A           29.3823162251      -16.7315299243       22.3927473972  MEMB      62              0.0000000000
      7671        62  DOPC      H15B           27.7411706203      -16.2302943114       22.3685562566  MEMB      62              0.0000000000
      7672        62  DOPC      H15C           28.7776770382      -15.8846017174       20.9812930203  MEMB      62              0.0000000000
      7673        62  DOPC      C11            29.9085369516      -17.4215957053       19.1211449309  MEMB      62              0.0000000000
      7674        62  DOPC      H11A           30.0170285685      -16.4204906246       19.5905478239  MEMB      62              0.0000000000
      7675        62  DOPC      H11B           30.9117192985      -17.7266097612       18.7538405393  MEMB      62              0.0000000000
      7676        62  DOPC      P              28.9701866479      -18.5549994380       16.8886431293  MEMB      62              0.0000000000
      7677        62  DOPC      O13            27.5539384430      -18.9157229902       16.7329679957  MEMB      62              0.0000000000
      7678        62  DOPC      O14            29.8644891676      -19.6806057985       17.1857223987  MEMB      62              0.0000000000
      7679        62  DOPC      O12            29.0217386499      -17.5096592141       18.0487539021  MEMB      62              0.0000000000
      7680        62  DOPC      O11            29.5048186167      -17.8424393175       15.5704835272  MEMB      62              0.0000000000
      7681        62  DOPC      C1             30.2117736851      -16.5589087070       15.6637743510  MEMB      62              0.0000000000
      7682        62  DOPC      HA             30.9725849218      -16.7702547617       16.4453242114  MEMB      62              0.0000000000
      7683        62  DOPC      HB             29.5560925990      -15.7352258953       16.0186685978  MEMB      62              0.0000000000
      7684        62  DOPC      C2             30.9488606137      -16.2480946318       14.3894967768  MEMB      62              0.0000000000
      7685        62  DOPC      HS             31.6018006904      -15.3784404041       14.6168547523  MEMB      62              0.0000000000
      7686        62  DOPC      O21            29.9631197467      -15.9261669234       13.3286880295  MEMB      62              0.0000000000
      7687        62  DOPC      C21            30.3672335154      -15.0251110491       12.3994062784  MEMB      62              0.0000000000
      7688        62  DOPC      O22            31.4512981133      -14.4705177942       12.4203045740  MEMB      62              0.0000000000
      7689        62  DOPC      C22            29.2741488667      -14.9952223161       11.2334258488  MEMB      62              0.0000000000
      7690        62  DOPC      H2R            28.3357955303      -14.5817341397       11.6610253947  MEMB      62              0.0000000000
      7691        62  DOPC      H2S            29.1157213466      -16.0736050244       11.0182229897  MEMB      62              0.0000000000
      7692        62  DOPC      C3             31.8497581785      -17.4475096643       13.9127924198  MEMB      62              0.0000000000
      7693        62  DOPC      HX             32.4989241568      -17.5220094415       14.8113214282  MEMB      62              0.0000000000
      7694        62  DOPC      HY             32.5064085122      -17.3129871140       13.0267703364  MEMB      62              0.0000000000
      7695        62  DOPC      O31            31.2464502893      -18.7525928906       13.8467089882  MEMB      62              0.0000000000
      7696        62  DOPC      C31            30.7908756129      -19.1151464609       12.6093557288  MEMB      62              0.0000000000
      7697        62  DOPC      O32            30.8228684966      -18.3940040775       11.6003023697  MEMB      62              0.0000000000
      7698        62  DOPC      C32            30.1567237489      -20.5066292215       12.6208608163  MEMB      62              0.0000000000
      7699        62  DOPC      H2X            30.7398620921      -21.1033476555       13.3544805965  MEMB      62              0.0000000000
      7700        62  DOPC      H2Y            29.0975799045      -20.4186480377       12.9445807445  MEMB      62              0.0000000000
      7701        62  DOPC      C23            29.6719500550      -14.1322260644       10.0828053361  MEMB      62              0.0000000000
      7702        62  DOPC      H3R            30.7227481078      -14.3496936068        9.7949646225  MEMB      62              0.0000000000
      7703        62  DOPC      H3S            29.7516140094      -13.0566539092       10.3494882638  MEMB      62              0.0000000000
      7704        62  DOPC      C24            28.7027835089      -14.2759483614        8.9162452743  MEMB      62              0.0000000000
      7705        62  DOPC      H4R            28.9044884435      -13.4221690034        8.2345582700  MEMB      62              0.0000000000
      7706        62  DOPC      H4S            27.7199689244      -14.1302781224        9.4134132909  MEMB      62              0.0000000000
      7707        62  DOPC      C25            28.8584688171      -15.6447256594        8.2494726823  MEMB      62              0.0000000000
      7708        62  DOPC      H5R            28.4562257548      -16.4358863800        8.9177427471  MEMB      62              0.0000000000
      7709        62  DOPC      H5S            29.9160898664      -15.8508100234        7.9787549848  MEMB      62              0.0000000000
      7710        62  DOPC      C26            27.9138132074      -15.6706688545        6.9276696842  MEMB      62              0.0000000000
      7711        62  DOPC      H6R            27.1048549367      -14.9184747741        7.0464621135  MEMB      62              0.0000000000
      7712        62  DOPC      H6S            27.4868458203      -16.6807714609        6.7495894903  MEMB      62              0.0000000000
      7713        62  DOPC      C27            28.6541656946      -15.3833650545        5.6367806668  MEMB      62              0.0000000000
      7714        62  DOPC      H7R            29.1443989553      -14.4257812149        5.9143156114  MEMB      62              0.0000000000
      7715        62  DOPC      H7S            27.8772342838      -15.2127461716        4.8611602680  MEMB      62              0.0000000000
      7716        62  DOPC      C28            29.7155531812      -16.4328608244        5.1978906481  MEMB      62              0.0000000000
      7717        62  DOPC      H8R            29.1586863403      -17.1485800363        4.5560439822  MEMB      62              0.0000000000
      7718        62  DOPC      H8S            30.0703029017      -17.0456351377        6.0540333804  MEMB      62              0.0000000000
      7719        62  DOPC      C29            30.8197781505      -15.7554377356        4.4216558144  MEMB      62              0.0000000000
      7720        62  DOPC      H9R            30.4491458083      -14.8850375616        3.8603762896  MEMB      62              0.0000000000
      7721        62  DOPC      C210           32.1495601305      -16.0664736761        4.4032496056  MEMB      62              0.0000000000
      7722        62  DOPC      H10R           32.6613105666      -15.4704280309        3.6332870778  MEMB      62              0.0000000000
      7723        62  DOPC      C211           32.7999397976      -17.1741346164        5.1935679277  MEMB      62              0.0000000000
      7724        62  DOPC      H11R           32.3844979052      -17.1590013703        6.2238586688  MEMB      62              0.0000000000
      7725        62  DOPC      H11S           33.8923553135      -16.9720890971        5.2048426868  MEMB      62              0.0000000000
      7726        62  DOPC      C212           32.5616720823      -18.5526947334        4.5650791012  MEMB      62              0.0000000000
      7727        62  DOPC      H12R           31.4853760447      -18.7842207797        4.4157350300  MEMB      62              0.0000000000
      7728        62  DOPC      H12S           33.0111961472      -19.2236166755        5.3280427581  MEMB      62              0.0000000000
      7729        62  DOPC      C213           33.4122221853      -18.7376072721        3.2486170245  MEMB      62              0.0000000000
      7730        62  DOPC      H13R           34.4814592750      -18.6163954324        3.5249504186  MEMB      62              0.0000000000
      7731        62  DOPC      H13S           33.2052104868      -17.8652186686        2.5925636114  MEMB      62              0.0000000000
      7732        62  DOPC      C214           33.1336242191      -20.0774091423        2.5332358812  MEMB      62              0.0000000000
      7733        62  DOPC      H14R           32.1078219458      -20.0408263384        2.1081333669  MEMB      62              0.0000000000
      7734        62  DOPC      H14S           33.3169913572      -20.8456421889        3.3145902703  MEMB      62              0.0000000000
      7735        62  DOPC      C215           34.1036076516      -20.1895766503        1.3435887941  MEMB      62              0.0000000000
      7736        62  DOPC      H15R           33.9157465330      -21.2350513439        1.0179946738  MEMB      62              0.0000000000
      7737        62  DOPC      H15S           35.1399938245      -20.0179059475        1.7051889656  MEMB      62              0.0000000000
      7738        62  DOPC      C216           33.7903834376      -19.2331035575        0.1871492285  MEMB      62              0.0000000000
      7739        62  DOPC      H16R           34.5678316901      -19.4428957230       -0.5782788637  MEMB      62              0.0000000000
      7740        62  DOPC      H16S           33.8660141025      -18.1598595174        0.4641838208  MEMB      62              0.0000000000
      7741        62  DOPC      C217           32.4721927628      -19.4770574921       -0.5178840338  MEMB      62              0.0000000000
      7742        62  DOPC      H17R           32.2503409828      -19.0041526325       -1.4984276013  MEMB      62              0.0000000000
      7743        62  DOPC      H17S           31.7736172027      -19.0467190899        0.2311964725  MEMB      62              0.0000000000
      7744        62  DOPC      C218           32.1515052956      -20.9398269756       -0.9058731952  MEMB      62              0.0000000000
      7745        62  DOPC      H18R           31.9786213109      -21.5160423570        0.0281557295  MEMB      62              0.0000000000
      7746        62  DOPC      H18S           33.0102823870      -21.3464844353       -1.4815917154  MEMB      62              0.0000000000
      7747        62  DOPC      H18T           31.2288289891      -21.0942541221       -1.5051567563  MEMB      62              0.0000000000
      7748        62  DOPC      C33            30.1169244180      -21.1951262881       11.2125042210  MEMB      62              0.0000000000
      7749        62  DOPC      H3X            29.5924934781      -20.5123100890       10.5103256574  MEMB      62              0.0000000000
      7750        62  DOPC      H3Y            29.4990574882      -22.1181147714       11.2380783995  MEMB      62              0.0000000000
      7751        62  DOPC      C34            31.6049386568      -21.5450022493       10.8269622107  MEMB      62              0.0000000000
      7752        62  DOPC      H4X            32.0011263570      -22.1003808466       11.7038379092  MEMB      62              0.0000000000
      7753        62  DOPC      H4Y            32.0631173126      -20.5330016500       10.8427320140  MEMB      62              0.0000000000
      7754        62  DOPC      C35            31.6827498704      -22.5307499060        9.6557411653  MEMB      62              0.0000000000
      7755        62  DOPC      H5X            31.2425696539      -23.5251773720        9.8830658134  MEMB      62              0.0000000000
      7756        62  DOPC      H5Y            32.7351898091      -22.8666615224        9.5380350047  MEMB      62              0.0000000000
      7757        62  DOPC      C36            30.9942850353      -22.0664779966        8.3777337676  MEMB      62              0.0000000000
      7758        62  DOPC      H6X            31.3482938688      -22.7179788254        7.5503603096  MEMB      62              0.0000000000
      7759        62  DOPC      H6Y            29.9158729722      -22.2261124712        8.5918952195  MEMB      62              0.0000000000
      7760        62  DOPC      C37            31.2569541325      -20.5863536170        8.0320110381  MEMB      62              0.0000000000
      7761        62  DOPC      H7X            31.0633153618      -19.9555519555        8.9258312896  MEMB      62              0.0000000000
      7762        62  DOPC      H7Y            32.3529638725      -20.4404292411        7.9234307254  MEMB      62              0.0000000000
      7763        62  DOPC      C38            30.4956534187      -20.0699294288        6.7907067994  MEMB      62              0.0000000000
      7764        62  DOPC      H8X            30.8779131236      -20.5684480185        5.8743673701  MEMB      62              0.0000000000
      7765        62  DOPC      H8Y            30.7460470671      -18.9925880946        6.6860204104  MEMB      62              0.0000000000
      7766        62  DOPC      C39            29.0158758652      -20.1377484593        7.0098996351  MEMB      62              0.0000000000
      7767        62  DOPC      H9X            28.5948968782      -19.4609331894        7.7679878024  MEMB      62              0.0000000000
      7768        62  DOPC      C310           28.0892717926      -20.8618989072        6.3571276690  MEMB      62              0.0000000000
      7769        62  DOPC      H10X           27.0396126215      -20.6805448860        6.6315838661  MEMB      62              0.0000000000
      7770        62  DOPC      C311           28.2581559712      -21.8367384995        5.1328011504  MEMB      62              0.0000000000
      7771        62  DOPC      H11X           27.4639073202      -22.6074464147        5.0353352070  MEMB      62              0.0000000000
      7772        62  DOPC      H11Y           29.1582078219      -22.4774125586        5.0154797215  MEMB      62              0.0000000000
      7773        62  DOPC      C312           28.3581756101      -21.1100522645        3.7746527783  MEMB      62              0.0000000000
      7774        62  DOPC      H12X           28.5301305339      -21.9153272234        3.0288084300  MEMB      62              0.0000000000
      7775        62  DOPC      H12Y           29.2743397048      -20.4852598322        3.8424707239  MEMB      62              0.0000000000
      7776        62  DOPC      C313           27.2303127996      -20.2632970167        3.3579853427  MEMB      62              0.0000000000
      7777        62  DOPC      H13X           26.2613377233      -20.7969896932        3.2551233974  MEMB      62              0.0000000000
      7778        62  DOPC      H13Y           27.0346018213      -19.3596628465        3.9739913665  MEMB      62              0.0000000000
      7779        62  DOPC      C314           27.4360949116      -19.6118064380        1.9553729668  MEMB      62              0.0000000000
      7780        62  DOPC      H14X           28.1700472936      -20.2260152186        1.3911191020  MEMB      62              0.0000000000
      7781        62  DOPC      H14Y           26.4887224721      -19.7448750706        1.3904840737  MEMB      62              0.0000000000
      7782        62  DOPC      C315           27.9890379408      -18.2266535481        1.9126892092  MEMB      62              0.0000000000
      7783        62  DOPC      H15X           28.2926506265      -18.0829880745        0.8536799698  MEMB      62              0.0000000000
      7784        62  DOPC      H15Y           28.9634789880      -18.0219904801        2.4055363136  MEMB      62              0.0000000000
      7785        62  DOPC      C316           27.0221654474      -17.1354307203        2.3858242929  MEMB      62              0.0000000000
      7786        62  DOPC      H16X           26.0232267087      -17.3394093366        1.9444221613  MEMB      62              0.0000000000
      7787        62  DOPC      H16Y           27.0048752614      -17.1238120230        3.4966284180  MEMB      62              0.0000000000
      7788        62  DOPC      C317           27.5388723323      -15.7636728938        1.9374201934  MEMB      62              0.0000000000
      7789        62  DOPC      H17X           27.0546537756      -14.8843220237        2.4134415664  MEMB      62              0.0000000000
      7790        62  DOPC      H17Y           28.5845809267      -15.8237128971        2.3078385651  MEMB      62              0.0000000000
      7791        62  DOPC      C318           27.5564379099      -15.5518891795        0.4525376847  MEMB      62              0.0000000000
      7792        62  DOPC      H18X           26.6150781848      -15.0612890397        0.1247054240  MEMB      62              0.0000000000
      7793        62  DOPC      H18Y           28.3069740623      -14.7565556048        0.2564226383  MEMB      62              0.0000000000
      7794        62  DOPC      H18Z           27.6881147940      -16.4727369769       -0.1549333829  MEMB      62              0.0000000000
      7795        63  DOPC      N             -19.3141084509       30.5983323834       19.5515321466  MEMB      63              0.0000000000
      7796        63  DOPC      C12           -19.8388401184       29.1903735034       19.9580291869  MEMB      63              0.0000000000
      7797        63  DOPC      H12A          -20.3891378155       28.7649205552       19.1318558803  MEMB      63              0.0000000000
      7798        63  DOPC      H12B          -20.5901648243       29.3659993133       20.7137188409  MEMB      63              0.0000000000
      7799        63  DOPC      C13           -18.2164918657       30.6096629070       18.5492636065  MEMB      63              0.0000000000
      7800        63  DOPC      H13A          -17.4640485926       29.8729667810       18.7890722088  MEMB      63              0.0000000000
      7801        63  DOPC      H13B          -18.5917003971       30.5060906043       17.5418454315  MEMB      63              0.0000000000
      7802        63  DOPC      H13C          -17.7445737238       31.5793937206       18.6068443362  MEMB      63              0.0000000000
      7803        63  DOPC      C14           -18.9742318760       31.2532391475       20.8614537243  MEMB      63              0.0000000000
      7804        63  DOPC      H14A          -18.1359418455       30.8918851604       21.4385961147  MEMB      63              0.0000000000
      7805        63  DOPC      H14B          -18.7285392122       32.2992805174       20.7526746192  MEMB      63              0.0000000000
      7806        63  DOPC      H14C          -19.7844720428       31.2545759902       21.5755328603  MEMB      63              0.0000000000
      7807        63  DOPC      C15           -20.3624127468       31.3973668988       18.9596734512  MEMB      63              0.0000000000
      7808        63  DOPC      H15A          -19.9261149366       32.3306773331       18.6356740561  MEMB      63              0.0000000000
      7809        63  DOPC      H15B          -21.1605496089       31.5068033046       19.6789795598  MEMB      63              0.0000000000
      7810        63  DOPC      H15C          -20.6439837831       30.9557228226       18.0151798913  MEMB      63              0.0000000000
      7811        63  DOPC      C11           -18.7840264051       28.1374515393       20.3903951873  MEMB      63              0.0000000000
      7812        63  DOPC      H11A          -18.1545232433       28.6269547150       21.1639801007  MEMB      63              0.0000000000
      7813        63  DOPC      H11B          -19.4132690053       27.2987040230       20.7576516978  MEMB      63              0.0000000000
      7814        63  DOPC      P             -18.4065341155       26.7717644575       18.0974829255  MEMB      63              0.0000000000
      7815        63  DOPC      O13           -19.2007641695       25.6016542625       18.5915560280  MEMB      63              0.0000000000
      7816        63  DOPC      O14           -17.2154456840       26.5206273833       17.2962271659  MEMB      63              0.0000000000
      7817        63  DOPC      O12           -17.9422304013       27.6842447836       19.3454374211  MEMB      63              0.0000000000
      7818        63  DOPC      O11           -19.4172834816       27.7140485537       17.3989491590  MEMB      63              0.0000000000
      7819        63  DOPC      C1            -20.1186846905       27.2127214124       16.2810116216  MEMB      63              0.0000000000
      7820        63  DOPC      HA            -21.0926316756       26.7557590837       16.5583812974  MEMB      63              0.0000000000
      7821        63  DOPC      HB            -19.4380894851       26.5368352177       15.7203967090  MEMB      63              0.0000000000
      7822        63  DOPC      C2            -20.3773794151       28.4556754696       15.3133906051  MEMB      63              0.0000000000
      7823        63  DOPC      HS            -20.5521839990       28.0686834929       14.2867446675  MEMB      63              0.0000000000
      7824        63  DOPC      O21           -19.2302882709       29.3600536133       15.4435407710  MEMB      63              0.0000000000
      7825        63  DOPC      C21           -18.1187287027       28.9683486389       14.7742970567  MEMB      63              0.0000000000
      7826        63  DOPC      O22           -17.9539150488       27.8410112875       14.2365988140  MEMB      63              0.0000000000
      7827        63  DOPC      C22           -17.1056869812       30.1118084299       14.7710561304  MEMB      63              0.0000000000
      7828        63  DOPC      H2R           -16.4489881653       29.9524031543       15.6529053507  MEMB      63              0.0000000000
      7829        63  DOPC      H2S           -17.7370075492       31.0259933562       14.7756753969  MEMB      63              0.0000000000
      7830        63  DOPC      C3            -21.6811279124       29.3258686592       15.6694252050  MEMB      63              0.0000000000
      7831        63  DOPC      HX            -21.6163313493       29.6993528457       16.7137586188  MEMB      63              0.0000000000
      7832        63  DOPC      HY            -22.5402151077       28.6213954849       15.6666364274  MEMB      63              0.0000000000
      7833        63  DOPC      O31           -21.9078547916       30.3527993776       14.7491832122  MEMB      63              0.0000000000
      7834        63  DOPC      C31           -22.5629577161       30.1568563960       13.6184607316  MEMB      63              0.0000000000
      7835        63  DOPC      O32           -22.8430308688       29.1040116895       13.0870985791  MEMB      63              0.0000000000
      7836        63  DOPC      C32           -22.8410517378       31.5548501523       12.9747100443  MEMB      63              0.0000000000
      7837        63  DOPC      H2X           -23.8387152646       31.9170090103       13.3030844005  MEMB      63              0.0000000000
      7838        63  DOPC      H2Y           -22.0533122722       32.2869444213       13.2536826644  MEMB      63              0.0000000000
      7839        63  DOPC      C23           -16.1947798180       30.1089791751       13.5477515057  MEMB      63              0.0000000000
      7840        63  DOPC      H3R           -15.5960580294       29.1852759863       13.3973325284  MEMB      63              0.0000000000
      7841        63  DOPC      H3S           -15.4327203710       30.8925862826       13.7466140831  MEMB      63              0.0000000000
      7842        63  DOPC      C24           -16.8285832722       30.5132227134       12.1830155261  MEMB      63              0.0000000000
      7843        63  DOPC      H4R           -16.1545395561       30.2605833429       11.3367535047  MEMB      63              0.0000000000
      7844        63  DOPC      H4S           -17.0514225206       31.5989646620       12.2593561441  MEMB      63              0.0000000000
      7845        63  DOPC      C25           -18.0940099346       29.7836647304       11.7307408529  MEMB      63              0.0000000000
      7846        63  DOPC      H5R           -18.8832859703       29.8847269134       12.5060798768  MEMB      63              0.0000000000
      7847        63  DOPC      H5S           -17.8575985284       28.7014977279       11.6450369101  MEMB      63              0.0000000000
      7848        63  DOPC      C26           -18.7033702519       30.1346128591       10.3879977022  MEMB      63              0.0000000000
      7849        63  DOPC      H6R           -17.9492328116       30.1642120847        9.5726930804  MEMB      63              0.0000000000
      7850        63  DOPC      H6S           -18.9941613899       31.2019305901       10.2850688890  MEMB      63              0.0000000000
      7851        63  DOPC      C27           -19.8379668669       29.1577293369       10.0095595639  MEMB      63              0.0000000000
      7852        63  DOPC      H7R           -20.6950594126       29.1852043954       10.7159296903  MEMB      63              0.0000000000
      7853        63  DOPC      H7S           -19.4737486630       28.1186187370        9.8615217556  MEMB      63              0.0000000000
      7854        63  DOPC      C28           -20.5652444377       29.4446749397        8.6937593463  MEMB      63              0.0000000000
      7855        63  DOPC      H8R           -21.1293358177       30.3806042062        8.8941548027  MEMB      63              0.0000000000
      7856        63  DOPC      H8S           -21.3586664656       28.6762705010        8.5739378538  MEMB      63              0.0000000000
      7857        63  DOPC      C29           -19.7732162089       29.6915066678        7.4928279251  MEMB      63              0.0000000000
      7858        63  DOPC      H9R           -19.0523674652       30.5223945886        7.4943439723  MEMB      63              0.0000000000
      7859        63  DOPC      C210          -19.8268952235       28.9336706087        6.3689074378  MEMB      63              0.0000000000
      7860        63  DOPC      H10R          -19.0778826371       29.1552620628        5.5943903783  MEMB      63              0.0000000000
      7861        63  DOPC      C211          -20.6921934160       27.7763551227        6.1147138617  MEMB      63              0.0000000000
      7862        63  DOPC      H11R          -21.6447768812       28.0425672511        6.6207147072  MEMB      63              0.0000000000
      7863        63  DOPC      H11S          -20.3596700459       26.8303894090        6.5931465883  MEMB      63              0.0000000000
      7864        63  DOPC      C212          -21.0476115243       27.5474631874        4.6926752693  MEMB      63              0.0000000000
      7865        63  DOPC      H12R          -21.5255555072       26.5450699907        4.6595352533  MEMB      63              0.0000000000
      7866        63  DOPC      H12S          -20.1273106842       27.6377186694        4.0768653939  MEMB      63              0.0000000000
      7867        63  DOPC      C213          -22.0997219758       28.4899124038        4.2302261952  MEMB      63              0.0000000000
      7868        63  DOPC      H13R          -21.6884349803       29.5134754296        4.3624487926  MEMB      63              0.0000000000
      7869        63  DOPC      H13S          -23.0152813669       28.5915347080        4.8513094463  MEMB      63              0.0000000000
      7870        63  DOPC      C214          -22.5533679303       28.3102629386        2.7090128559  MEMB      63              0.0000000000
      7871        63  DOPC      H14R          -23.2169803250       27.4276844879        2.5865568317  MEMB      63              0.0000000000
      7872        63  DOPC      H14S          -21.6561887612       28.1488380925        2.0739277093  MEMB      63              0.0000000000
      7873        63  DOPC      C215          -23.3177521195       29.5788135380        2.1417890557  MEMB      63              0.0000000000
      7874        63  DOPC      H15R          -22.8523452762       30.5321489640        2.4717420329  MEMB      63              0.0000000000
      7875        63  DOPC      H15S          -24.3958903805       29.6037306364        2.4088438236  MEMB      63              0.0000000000
      7876        63  DOPC      C216          -23.0989218039       29.4979700677        0.6440793751  MEMB      63              0.0000000000
      7877        63  DOPC      H16R          -23.5134906496       28.5115230776        0.3451215373  MEMB      63              0.0000000000
      7878        63  DOPC      H16S          -22.0071482771       29.5505910585        0.4451249820  MEMB      63              0.0000000000
      7879        63  DOPC      C217          -23.8346556521       30.5675516177       -0.2377644644  MEMB      63              0.0000000000
      7880        63  DOPC      H17R          -24.9417897400       30.5101487153       -0.1651005968  MEMB      63              0.0000000000
      7881        63  DOPC      H17S          -23.6119258292       30.2962257084       -1.2918493542  MEMB      63              0.0000000000
      7882        63  DOPC      C218          -23.4172743679       31.9895456529        0.0773033840  MEMB      63              0.0000000000
      7883        63  DOPC      H18R          -24.0273142222       32.6271601838       -0.5976939605  MEMB      63              0.0000000000
      7884        63  DOPC      H18S          -22.3764662790       32.0437070304       -0.3075429250  MEMB      63              0.0000000000
      7885        63  DOPC      H18T          -23.5800691682       32.2893745705        1.1346197690  MEMB      63              0.0000000000
      7886        63  DOPC      C33           -22.7993436112       31.5611952626       11.4028167861  MEMB      63              0.0000000000
      7887        63  DOPC      H3X           -23.2110415653       30.6767332320       10.8712605644  MEMB      63              0.0000000000
      7888        63  DOPC      H3Y           -21.7030709336       31.5215790422       11.2269254916  MEMB      63              0.0000000000
      7889        63  DOPC      C34           -23.3548218095       32.7395743668       10.7868407098  MEMB      63              0.0000000000
      7890        63  DOPC      H4X           -22.8584264986       33.6034303732       11.2784348514  MEMB      63              0.0000000000
      7891        63  DOPC      H4Y           -24.4563081680       32.7416112218       10.9319085043  MEMB      63              0.0000000000
      7892        63  DOPC      C35           -23.0699844337       32.8600735241        9.2366950987  MEMB      63              0.0000000000
      7893        63  DOPC      H5X           -22.0189745918       32.5600267393        9.0375190424  MEMB      63              0.0000000000
      7894        63  DOPC      H5Y           -23.2113387215       33.9004919480        8.8735560879  MEMB      63              0.0000000000
      7895        63  DOPC      C36           -23.9019163118       31.8371611746        8.3460969586  MEMB      63              0.0000000000
      7896        63  DOPC      H6X           -23.5414135796       30.8157791970        8.5933582586  MEMB      63              0.0000000000
      7897        63  DOPC      H6Y           -24.9024747077       31.8757498893        8.8274646236  MEMB      63              0.0000000000
      7898        63  DOPC      C37           -24.0586531773       32.1383162634        6.8028223066  MEMB      63              0.0000000000
      7899        63  DOPC      H7X           -24.8427314597       31.4321550495        6.4551452084  MEMB      63              0.0000000000
      7900        63  DOPC      H7Y           -24.4930497761       33.1582874321        6.7301671409  MEMB      63              0.0000000000
      7901        63  DOPC      C38           -22.7939624518       31.9570167053        5.9295562830  MEMB      63              0.0000000000
      7902        63  DOPC      H8X           -23.0913290987       31.6762225660        4.8965750541  MEMB      63              0.0000000000
      7903        63  DOPC      H8Y           -22.1864329366       31.2533528333        6.5379025504  MEMB      63              0.0000000000
      7904        63  DOPC      C39           -22.0088112128       33.1712841338        5.8898554306  MEMB      63              0.0000000000
      7905        63  DOPC      H9X           -21.7671897565       33.4699074957        6.9206043491  MEMB      63              0.0000000000
      7906        63  DOPC      C310          -21.5365734316       33.8593779731        4.8365282494  MEMB      63              0.0000000000
      7907        63  DOPC      H10X          -20.9526565985       34.7647748839        5.0585576184  MEMB      63              0.0000000000
      7908        63  DOPC      C311          -21.6532637468       33.5455892121        3.3711983821  MEMB      63              0.0000000000
      7909        63  DOPC      H11X          -21.9583192970       34.4646188846        2.8265471057  MEMB      63              0.0000000000
      7910        63  DOPC      H11Y          -22.3750645913       32.7146614513        3.2199277374  MEMB      63              0.0000000000
      7911        63  DOPC      C312          -20.3593963092       33.2487265910        2.6652801161  MEMB      63              0.0000000000
      7912        63  DOPC      H12X          -19.5998227310       34.0370573523        2.8547634107  MEMB      63              0.0000000000
      7913        63  DOPC      H12Y          -20.4206460150       33.2140943271        1.5565107860  MEMB      63              0.0000000000
      7914        63  DOPC      C313          -19.7032188313       32.0197541571        3.3180934831  MEMB      63              0.0000000000
      7915        63  DOPC      H13X          -19.2938709114       32.3235250876        4.3052509875  MEMB      63              0.0000000000
      7916        63  DOPC      H13Y          -20.5377705384       31.2948508399        3.4292678530  MEMB      63              0.0000000000
      7917        63  DOPC      C314          -18.5160962689       31.4195047909        2.5323199016  MEMB      63              0.0000000000
      7918        63  DOPC      H14X          -17.6789827716       32.1498988271        2.5416507859  MEMB      63              0.0000000000
      7919        63  DOPC      H14Y          -18.2867474456       30.5706048090        3.2113554551  MEMB      63              0.0000000000
      7920        63  DOPC      C315          -18.8169100813       30.9739438136        1.0866264580  MEMB      63              0.0000000000
      7921        63  DOPC      H15X          -19.1317080769       31.8474429715        0.4765256059  MEMB      63              0.0000000000
      7922        63  DOPC      H15Y          -19.6539262584       30.2449425344        1.1343972042  MEMB      63              0.0000000000
      7923        63  DOPC      C316          -17.7249330974       30.2343301180        0.2891107780  MEMB      63              0.0000000000
      7924        63  DOPC      H16X          -17.9185717827       30.1320400350       -0.8000919879  MEMB      63              0.0000000000
      7925        63  DOPC      H16Y          -16.8124157195       30.8411703801        0.4718064791  MEMB      63              0.0000000000
      7926        63  DOPC      C317          -17.4297288517       28.7796340747        0.7150317886  MEMB      63              0.0000000000
      7927        63  DOPC      H17X          -16.6382356500       28.3413101842        0.0702607481  MEMB      63              0.0000000000
      7928        63  DOPC      H17Y          -17.0511546321       28.8105462137        1.7590845859  MEMB      63              0.0000000000
      7929        63  DOPC      C318          -18.6858506408       27.8627421896        0.7014558464  MEMB      63              0.0000000000
      7930        63  DOPC      H18X          -18.5884925542       26.8205768123        1.0739265555  MEMB      63              0.0000000000
      7931        63  DOPC      H18Y          -19.5589660478       28.2391157742        1.2762020586  MEMB      63              0.0000000000
      7932        63  DOPC      H18Z          -19.1307154430       27.6097775120       -0.2846605106  MEMB      63              0.0000000000
      7933        64  CHL1      C3            -32.7230792215       12.2310507005       17.2845000000  MEMB      64              0.0000000000
      7934        64  CHL1      H3            -33.1201656595       11.1941831656       17.3238100000  MEMB      64              0.0000000000
      7935        64  CHL1      O3            -32.4997595785       12.4805294995       18.7155000000  MEMB      64              0.0000000000
      7936        64  CHL1      H3'           -32.3527498944       11.5957891233       19.0578900000  MEMB      64              0.0000000000
      7937        64  CHL1      C4            -31.2839459407       12.3224192829       16.7003100000  MEMB      64              0.0000000000
      7938        64  CHL1      H4A           -30.8124597239       13.2712563173       17.0345400000  MEMB      64              0.0000000000
      7939        64  CHL1      H4B           -30.6726352291       11.4670486617       17.0594200000  MEMB      64              0.0000000000
      7940        64  CHL1      C5            -31.1624325425       12.2686319111       15.1345700000  MEMB      64              0.0000000000
      7941        64  CHL1      C6            -30.3444316061       11.4421448484       14.5259000000  MEMB      64              0.0000000000
      7942        64  CHL1      H6            -29.6656464214       10.8281524148       15.1360200000  MEMB      64              0.0000000000
      7943        64  CHL1      C7            -30.0811433389       11.4488733599       13.0510200000  MEMB      64              0.0000000000
      7944        64  CHL1      H7A           -29.0019116086       11.4830311004       12.7894600000  MEMB      64              0.0000000000
      7945        64  CHL1      H7B           -30.3794795345       10.4568831659       12.6494500000  MEMB      64              0.0000000000
      7946        64  CHL1      C8            -30.7988095802       12.6537359519       12.3163300000  MEMB      64              0.0000000000
      7947        64  CHL1      H8            -30.0791466071       13.4975759379       12.3823100000  MEMB      64              0.0000000000
      7948        64  CHL1      C14           -30.9568524631       12.3658431036       10.8945400000  MEMB      64              0.0000000000
      7949        64  CHL1      H14           -31.7256057999       11.5662580461       10.8313500000  MEMB      64              0.0000000000
      7950        64  CHL1      C15           -29.6614258467       11.8532282866       10.2753900000  MEMB      64              0.0000000000
      7951        64  CHL1      H15A          -28.7634737218       12.3873184825       10.6532000000  MEMB      64              0.0000000000
      7952        64  CHL1      H15B          -29.5127349561       10.7583573737       10.3914200000  MEMB      64              0.0000000000
      7953        64  CHL1      C16           -29.8893866361       12.0922483169        8.7928500000  MEMB      64              0.0000000000
      7954        64  CHL1      H16A          -29.2600619534       12.9295200257        8.4223800000  MEMB      64              0.0000000000
      7955        64  CHL1      H16B          -29.6932509934       11.1608263823        8.2198700000  MEMB      64              0.0000000000
      7956        64  CHL1      C17           -31.3039149426       12.7536860683        8.6323600000  MEMB      64              0.0000000000
      7957        64  CHL1      H17           -32.0684835237       11.9483599030        8.6672000000  MEMB      64              0.0000000000
      7958        64  CHL1      C13           -31.4499067622       13.4940887113       10.0123700000  MEMB      64              0.0000000000
      7959        64  CHL1      C18           -30.5043111565       14.7350339220       10.1644600000  MEMB      64              0.0000000000
      7960        64  CHL1      H18A          -30.8818518250       15.4942672696        9.4465900000  MEMB      64              0.0000000000
      7961        64  CHL1      H18B          -30.4206000958       14.9905324080       11.2424400000  MEMB      64              0.0000000000
      7962        64  CHL1      H18C          -29.5284801737       14.4816881109        9.6976800000  MEMB      64              0.0000000000
      7963        64  CHL1      C12           -32.9037087974       13.7570364766       10.5559800000  MEMB      64              0.0000000000
      7964        64  CHL1      H12A          -33.4780849078       14.5301842534       10.0022200000  MEMB      64              0.0000000000
      7965        64  CHL1      H12B          -33.4603859997       12.8154223560       10.3615100000  MEMB      64              0.0000000000
      7966        64  CHL1      C11           -32.9667022294       13.9725521772       12.0512200000  MEMB      64              0.0000000000
      7967        64  CHL1      H11A          -32.4097114419       14.9311952897       11.9799700000  MEMB      64              0.0000000000
      7968        64  CHL1      H11B          -33.9429741155       14.2262999887       12.5168700000  MEMB      64              0.0000000000
      7969        64  CHL1      C9            -32.1732940115       13.0174602269       12.9262600000  MEMB      64              0.0000000000
      7970        64  CHL1      H9            -32.7253946326       12.0575128632       12.8367300000  MEMB      64              0.0000000000
      7971        64  CHL1      C10           -32.0671400199       13.3096750042       14.4305700000  MEMB      64              0.0000000000
      7972        64  CHL1      C19           -31.5366728402       14.8011839481       14.6161000000  MEMB      64              0.0000000000
      7973        64  CHL1      H19A          -32.1765462859       15.4939969930       14.0288300000  MEMB      64              0.0000000000
      7974        64  CHL1      H19B          -31.6475926731       15.0361361790       15.6962800000  MEMB      64              0.0000000000
      7975        64  CHL1      H19C          -30.4778268181       14.9152119515       14.2996000000  MEMB      64              0.0000000000
      7976        64  CHL1      C1            -33.4285480122       13.1598088011       15.1076900000  MEMB      64              0.0000000000
      7977        64  CHL1      H1A           -34.1341124683       13.8816168880       14.6434600000  MEMB      64              0.0000000000
      7978        64  CHL1      H1B           -33.7166278253       12.1108680925       14.8817000000  MEMB      64              0.0000000000
      7979        64  CHL1      C2            -33.4706946711       13.3244743253       16.6223000000  MEMB      64              0.0000000000
      7980        64  CHL1      H2A           -34.4949449505       13.1645249119       17.0218500000  MEMB      64              0.0000000000
      7981        64  CHL1      H2B           -33.1123116713       14.3045253101       17.0035700000  MEMB      64              0.0000000000
      7982        64  CHL1      C20           -31.5116412915       13.5008301051        7.3659500000  MEMB      64              0.0000000000
      7983        64  CHL1      H20           -30.8809494681       14.4117628852        7.4480700000  MEMB      64              0.0000000000
      7984        64  CHL1      C21           -32.9418490429       14.0770676364        7.1908800000  MEMB      64              0.0000000000
      7985        64  CHL1      H21A          -33.2525174126       14.0473604308        6.1246100000  MEMB      64              0.0000000000
      7986        64  CHL1      H21B          -33.0071735908       15.1430308510        7.4971000000  MEMB      64              0.0000000000
      7987        64  CHL1      H21C          -33.7613511528       13.4760363802        7.6397600000  MEMB      64              0.0000000000
      7988        64  CHL1      C22           -31.0541371948       12.7658965838        6.1146100000  MEMB      64              0.0000000000
      7989        64  CHL1      H22A          -31.5304470656       13.1307669310        5.1795600000  MEMB      64              0.0000000000
      7990        64  CHL1      H22B          -29.9526082526       12.8582092831        6.0030800000  MEMB      64              0.0000000000
      7991        64  CHL1      C23           -31.4115319507       11.2653349155        5.9703200000  MEMB      64              0.0000000000
      7992        64  CHL1      H23A          -30.8777007319       10.6241935486        6.7040000000  MEMB      64              0.0000000000
      7993        64  CHL1      H23B          -32.5047047649       11.1398367838        6.1237400000  MEMB      64              0.0000000000
      7994        64  CHL1      C24           -31.0174066523       10.4509683279        4.6529100000  MEMB      64              0.0000000000
      7995        64  CHL1      H24A          -29.9356158732       10.4511586683        4.3998600000  MEMB      64              0.0000000000
      7996        64  CHL1      H24B          -31.3418421158        9.4419297582        4.9859500000  MEMB      64              0.0000000000
      7997        64  CHL1      C25           -31.8049391756       10.7690121187        3.3274900000  MEMB      64              0.0000000000
      7998        64  CHL1      H25           -32.8508146573       10.9596882086        3.6501500000  MEMB      64              0.0000000000
      7999        64  CHL1      C26           -31.3327427338       11.9786353416        2.5681100000  MEMB      64              0.0000000000
      8000        64  CHL1      H26A          -30.2485140987       11.9572109218        2.3266600000  MEMB      64              0.0000000000
      8001        64  CHL1      H26B          -31.9176646086       12.0380751378        1.6254300000  MEMB      64              0.0000000000
      8002        64  CHL1      H26C          -31.4706316323       12.9035283798        3.1680100000  MEMB      64              0.0000000000
      8003        64  CHL1      C27           -31.6746303592        9.5753907534        2.3071300000  MEMB      64              0.0000000000
      8004        64  CHL1      H27A          -32.4283917816        9.7216073073        1.5041400000  MEMB      64              0.0000000000
      8005        64  CHL1      H27B          -30.6881766413        9.6419297309        1.8003600000  MEMB      64              0.0000000000
      8006        64  CHL1      H27C          -31.7904218231        8.5788348255        2.7843900000  MEMB      64              0.0000000000
      8007        65  DOPE      N             -11.2921516502       33.6603122036       21.5233327754  MEMB      65              0.0000000000
      8008        65  DOPE      HN1           -12.2498037274       33.8985082300       21.1950567208  MEMB      65              0.0000000000
      8009        65  DOPE      HN2           -11.3136594606       32.6715539650       21.8450384789  MEMB      65              0.0000000000
      8010        65  DOPE      HN3           -11.0434548790       34.3470279289       22.2637188338  MEMB      65              0.0000000000
      8011        65  DOPE      C12           -10.2840492655       33.7388900449       20.3823005255  MEMB      65              0.0000000000
      8012        65  DOPE      H12A           -9.3799374418       33.1574431451       20.6630537448  MEMB      65              0.0000000000
      8013        65  DOPE      H12B          -10.0631028264       34.8267158957       20.3360554769  MEMB      65              0.0000000000
      8014        65  DOPE      C11           -10.9133336977       33.2595659880       19.0111394060  MEMB      65              0.0000000000
      8015        65  DOPE      H11A          -10.1797057956       33.5775767911       18.2397898660  MEMB      65              0.0000000000
      8016        65  DOPE      H11B          -11.8587500448       33.8424981642       18.9847028225  MEMB      65              0.0000000000
      8017        65  DOPE      P             -12.3892385309       31.2101567779       18.1658670878  MEMB      65              0.0000000000
      8018        65  DOPE      O13           -12.5520803195       29.8664477124       18.7058044363  MEMB      65              0.0000000000
      8019        65  DOPE      O14           -12.2862593345       31.3855483634       16.6842490798  MEMB      65              0.0000000000
      8020        65  DOPE      O11           -13.5020845515       32.1934820617       18.7247902913  MEMB      65              0.0000000000
      8021        65  DOPE      O12           -11.0530018005       31.8637592132       18.8025163987  MEMB      65              0.0000000000
      8022        65  DOPE      C1            -14.4752154419       31.8668112330       19.6555827805  MEMB      65              0.0000000000
      8023        65  DOPE      HA            -14.3504118978       32.5543717882       20.5192988798  MEMB      65              0.0000000000
      8024        65  DOPE      HB            -14.2758354116       30.8772369539       20.1195994142  MEMB      65              0.0000000000
      8025        65  DOPE      C2            -15.8569037587       32.1470074601       19.1864966122  MEMB      65              0.0000000000
      8026        65  DOPE      HS            -16.5946731203       31.7600658765       19.9215431155  MEMB      65              0.0000000000
      8027        65  DOPE      O21           -16.0450834121       31.4875484200       17.9524472111  MEMB      65              0.0000000000
      8028        65  DOPE      C21           -16.0592961812       30.1863231758       17.9436421246  MEMB      65              0.0000000000
      8029        65  DOPE      O22           -16.3965374612       29.4480137362       18.8479774633  MEMB      65              0.0000000000
      8030        65  DOPE      C22           -15.5957873899       29.6375827524       16.5870281588  MEMB      65              0.0000000000
      8031        65  DOPE      H2R           -15.4678957497       28.5493050180       16.7703754405  MEMB      65              0.0000000000
      8032        65  DOPE      H2S           -14.6146344472       30.1337623740       16.4274485139  MEMB      65              0.0000000000
      8033        65  DOPE      C3            -16.0272273688       33.7261591831       19.0603003841  MEMB      65              0.0000000000
      8034        65  DOPE      HX            -15.9564878864       34.1074287759       20.1014297238  MEMB      65              0.0000000000
      8035        65  DOPE      HY            -17.1015802373       33.8245508670       18.7949584557  MEMB      65              0.0000000000
      8036        65  DOPE      O31           -14.9630351018       34.4128288623       18.1921000521  MEMB      65              0.0000000000
      8037        65  DOPE      C31           -15.1543891813       34.3540526324       16.9213502568  MEMB      65              0.0000000000
      8038        65  DOPE      O32           -16.1438478715       34.0972173109       16.2845297283  MEMB      65              0.0000000000
      8039        65  DOPE      C32           -13.7841025126       34.5459545735       16.1711041760  MEMB      65              0.0000000000
      8040        65  DOPE      H2X           -13.5884886171       35.6390202557       16.1355624885  MEMB      65              0.0000000000
      8041        65  DOPE      H2Y           -12.9938647460       34.1108478873       16.8195852128  MEMB      65              0.0000000000
      8042        65  DOPE      C23           -16.5337589780       30.0411200421       15.3413235656  MEMB      65              0.0000000000
      8043        65  DOPE      H3R           -16.5385500374       31.1517668288       15.3689227605  MEMB      65              0.0000000000
      8044        65  DOPE      H3S           -17.5771967654       29.8035783941       15.6398753476  MEMB      65              0.0000000000
      8045        65  DOPE      C24           -16.0551964231       29.5923355774       13.9328946529  MEMB      65              0.0000000000
      8046        65  DOPE      H4R           -15.1036887275       30.0916333365       13.6506608165  MEMB      65              0.0000000000
      8047        65  DOPE      H4S           -16.8931144798       30.0386287515       13.3558009326  MEMB      65              0.0000000000
      8048        65  DOPE      C25           -16.0263571078       28.0725917786       13.6796129177  MEMB      65              0.0000000000
      8049        65  DOPE      H5R           -17.0778939420       27.7199755769       13.7448291411  MEMB      65              0.0000000000
      8050        65  DOPE      H5S           -15.5556785851       27.5626131399       14.5471982562  MEMB      65              0.0000000000
      8051        65  DOPE      C26           -15.3264009205       27.5999412228       12.3340305545  MEMB      65              0.0000000000
      8052        65  DOPE      H6R           -15.3034990222       26.4920004280       12.4131741889  MEMB      65              0.0000000000
      8053        65  DOPE      H6S           -14.2650268441       27.9282664554       12.3310958978  MEMB      65              0.0000000000
      8054        65  DOPE      C27           -15.8134248224       28.1760351580       10.9957550395  MEMB      65              0.0000000000
      8055        65  DOPE      H7R           -15.9382346228       29.2736081764       11.1144031553  MEMB      65              0.0000000000
      8056        65  DOPE      H7S           -16.8448170887       27.7724739577       10.9080688274  MEMB      65              0.0000000000
      8057        65  DOPE      C28           -14.9120012726       27.7073425557        9.8308579916  MEMB      65              0.0000000000
      8058        65  DOPE      H8R           -14.6818804266       26.6283435249        9.9617258242  MEMB      65              0.0000000000
      8059        65  DOPE      H8S           -13.9241841943       28.1989774494        9.9606023352  MEMB      65              0.0000000000
      8060        65  DOPE      C29           -15.5898470574       27.9637537799        8.4952961971  MEMB      65              0.0000000000
      8061        65  DOPE      H9R           -16.6451210727       28.2395277310        8.6379337009  MEMB      65              0.0000000000
      8062        65  DOPE      C210          -15.0999035966       27.9224910407        7.2963063778  MEMB      65              0.0000000000
      8063        65  DOPE      H10R          -15.6848209726       28.1488171070        6.3926209296  MEMB      65              0.0000000000
      8064        65  DOPE      C211          -13.6384998261       27.4615110275        6.9927844167  MEMB      65              0.0000000000
      8065        65  DOPE      H11R          -13.2983791103       26.6746750228        7.6995575648  MEMB      65              0.0000000000
      8066        65  DOPE      H11S          -13.0562879597       28.4020369266        7.0965200322  MEMB      65              0.0000000000
      8067        65  DOPE      C212          -13.2447599832       26.9077621877        5.5818573223  MEMB      65              0.0000000000
      8068        65  DOPE      H12R          -13.8700986154       26.0110732566        5.3838135036  MEMB      65              0.0000000000
      8069        65  DOPE      H12S          -12.2185927210       26.4896591617        5.6624279828  MEMB      65              0.0000000000
      8070        65  DOPE      C213          -13.4449763584       27.9135985457        4.3719431823  MEMB      65              0.0000000000
      8071        65  DOPE      H13R          -13.2020870340       28.9518692252        4.6839042137  MEMB      65              0.0000000000
      8072        65  DOPE      H13S          -14.4869512894       27.7773037484        4.0113419662  MEMB      65              0.0000000000
      8073        65  DOPE      C214          -12.5494868336       27.4900289528        3.1560501198  MEMB      65              0.0000000000
      8074        65  DOPE      H14R          -12.9717112680       26.5134696926        2.8360822204  MEMB      65              0.0000000000
      8075        65  DOPE      H14S          -11.5185456081       27.3501517127        3.5458126267  MEMB      65              0.0000000000
      8076        65  DOPE      C215          -12.7962337947       28.3091564443        1.9172544911  MEMB      65              0.0000000000
      8077        65  DOPE      H15R          -12.0411132604       28.0024177208        1.1622531227  MEMB      65              0.0000000000
      8078        65  DOPE      H15S          -12.5933199725       29.3560595649        2.2289276134  MEMB      65              0.0000000000
      8079        65  DOPE      C216          -14.1922079995       28.2475915213        1.3110858415  MEMB      65              0.0000000000
      8080        65  DOPE      H16R          -14.9700420530       28.5800313842        2.0313489844  MEMB      65              0.0000000000
      8081        65  DOPE      H16S          -14.3164795591       27.1690859943        1.0750718096  MEMB      65              0.0000000000
      8082        65  DOPE      C217          -14.3126192764       29.3014604517        0.1760712268  MEMB      65              0.0000000000
      8083        65  DOPE      H17R          -13.3977941431       29.1621026373       -0.4387412682  MEMB      65              0.0000000000
      8084        65  DOPE      H17S          -14.2172007364       30.3084583040        0.6356063945  MEMB      65              0.0000000000
      8085        65  DOPE      C218          -15.6660817943       29.1714401362       -0.6297663248  MEMB      65              0.0000000000
      8086        65  DOPE      H18R          -15.9162280520       28.1286322137       -0.9201099603  MEMB      65              0.0000000000
      8087        65  DOPE      H18S          -15.6317292353       29.8241458103       -1.5281641175  MEMB      65              0.0000000000
      8088        65  DOPE      H18T          -16.4956117817       29.5743523658       -0.0101993431  MEMB      65              0.0000000000
      8089        65  DOPE      C33           -13.8530374968       33.8093970714       14.7327254779  MEMB      65              0.0000000000
      8090        65  DOPE      H3X           -14.7739691534       34.1430428516       14.2084289748  MEMB      65              0.0000000000
      8091        65  DOPE      H3Y           -14.1654580520       32.7648021260       14.9461165412  MEMB      65              0.0000000000
      8092        65  DOPE      C34           -12.6917291185       33.8819329509       13.7530814182  MEMB      65              0.0000000000
      8093        65  DOPE      H4X           -12.3170765848       34.9274640880       13.7244255636  MEMB      65              0.0000000000
      8094        65  DOPE      H4Y           -11.8410494809       33.2146257816       14.0087495341  MEMB      65              0.0000000000
      8095        65  DOPE      C35           -13.2335489818       33.5249610062       12.3650694381  MEMB      65              0.0000000000
      8096        65  DOPE      H5X           -14.1126529390       34.1309675187       12.0580626904  MEMB      65              0.0000000000
      8097        65  DOPE      H5Y           -13.5195552133       32.4548791352       12.2787775213  MEMB      65              0.0000000000
      8098        65  DOPE      C36           -12.1472908707       34.0324927610       11.3328616023  MEMB      65              0.0000000000
      8099        65  DOPE      H6X           -11.1488688401       33.5590177073       11.4481684853  MEMB      65              0.0000000000
      8100        65  DOPE      H6Y           -12.0468773738       35.1351094037       11.4249210220  MEMB      65              0.0000000000
      8101        65  DOPE      C37           -12.7207380655       33.9315741203        9.8220568430  MEMB      65              0.0000000000
      8102        65  DOPE      H7X           -13.6420766133       34.5519745489        9.8457132808  MEMB      65              0.0000000000
      8103        65  DOPE      H7Y           -11.9630182451       34.5262495433        9.2683944058  MEMB      65              0.0000000000
      8104        65  DOPE      C38           -12.9679865393       32.4733350252        9.1642199686  MEMB      65              0.0000000000
      8105        65  DOPE      H8X           -13.3386828930       32.6731091727        8.1361173611  MEMB      65              0.0000000000
      8106        65  DOPE      H8Y           -13.8161160989       32.0464280128        9.7410623845  MEMB      65              0.0000000000
      8107        65  DOPE      C39           -11.7286833529       31.5677212995        9.1478385184  MEMB      65              0.0000000000
      8108        65  DOPE      H9X           -11.4458574173       31.2786639602       10.1708030641  MEMB      65              0.0000000000
      8109        65  DOPE      C310          -11.1142811013       31.0338302612        8.0704190960  MEMB      65              0.0000000000
      8110        65  DOPE      H10X          -10.2006513049       30.4349862551        8.1995167435  MEMB      65              0.0000000000
      8111        65  DOPE      C311          -11.5205365028       31.2835256541        6.5851011753  MEMB      65              0.0000000000
      8112        65  DOPE      H11X          -12.2426969275       30.4836139993        6.3150145181  MEMB      65              0.0000000000
      8113        65  DOPE      H11Y          -11.9894141395       32.2794575792        6.4347874280  MEMB      65              0.0000000000
      8114        65  DOPE      C312          -10.1883398865       31.1726713181        5.7924015625  MEMB      65              0.0000000000
      8115        65  DOPE      H12X           -9.9133817819       30.1148670162        5.9918234874  MEMB      65              0.0000000000
      8116        65  DOPE      H12Y           -9.5316585571       31.9944453002        6.1498618269  MEMB      65              0.0000000000
      8117        65  DOPE      C313          -10.3947026791       31.3329245728        4.2824564223  MEMB      65              0.0000000000
      8118        65  DOPE      H13X           -9.4615474074       31.0411474973        3.7548122405  MEMB      65              0.0000000000
      8119        65  DOPE      H13Y          -11.2371826644       30.7278780549        3.8843769595  MEMB      65              0.0000000000
      8120        65  DOPE      C314          -10.7210328973       32.8406064710        3.8430245709  MEMB      65              0.0000000000
      8121        65  DOPE      H14X           -9.9321354649       33.4339788182        4.3528008813  MEMB      65              0.0000000000
      8122        65  DOPE      H14Y          -11.7624625118       32.9937015152        4.1984212326  MEMB      65              0.0000000000
      8123        65  DOPE      C315          -10.6090568213       33.1903394910        2.3325701449  MEMB      65              0.0000000000
      8124        65  DOPE      H15X           -9.5535138124       33.0814435896        2.0034933649  MEMB      65              0.0000000000
      8125        65  DOPE      H15Y          -10.8742686947       34.2574759021        2.1738145809  MEMB      65              0.0000000000
      8126        65  DOPE      C316          -11.4763554172       32.3271526474        1.4387340820  MEMB      65              0.0000000000
      8127        65  DOPE      H16X          -12.5233068296       32.6986797048        1.4521996370  MEMB      65              0.0000000000
      8128        65  DOPE      H16Y          -11.4092985107       31.3057059475        1.8705577159  MEMB      65              0.0000000000
      8129        65  DOPE      C317          -11.1734695442       32.5271200880       -0.0999275389  MEMB      65              0.0000000000
      8130        65  DOPE      H17X          -11.6267684834       33.4742666493       -0.4629088373  MEMB      65              0.0000000000
      8131        65  DOPE      H17Y          -10.0779485318       32.7113477681       -0.0852546826  MEMB      65              0.0000000000
      8132        65  DOPE      C318          -11.7131408260       31.4817506810       -1.0113132366  MEMB      65              0.0000000000
      8133        65  DOPE      H18X          -11.2484533654       30.4770203901       -0.9169550437  MEMB      65              0.0000000000
      8134        65  DOPE      H18Y          -12.8086307812       31.4206193004       -0.8367119985  MEMB      65              0.0000000000
      8135        65  DOPE      H18Z          -11.7566892204       31.8951854570       -2.0416036037  MEMB      65              0.0000000000
      8136        66  DOPC      N               0.0217970263      -35.5607337858       20.9298995449  MEMB      66              0.0000000000
      8137        66  DOPC      C12            -0.4115995450      -34.7952444434       19.6743589410  MEMB      66              0.0000000000
      8138        66  DOPC      H12A            0.1945416257      -33.9024847799       19.6299397122  MEMB      66              0.0000000000
      8139        66  DOPC      H12B           -1.4463148841      -34.5493830566       19.8622854737  MEMB      66              0.0000000000
      8140        66  DOPC      C13             1.5191730706      -35.6433864073       21.0666897337  MEMB      66              0.0000000000
      8141        66  DOPC      H13A            1.8596315242      -34.6228808219       21.1618546829  MEMB      66              0.0000000000
      8142        66  DOPC      H13B            1.7433739063      -36.0820883233       22.0277695987  MEMB      66              0.0000000000
      8143        66  DOPC      H13C            2.0547049154      -36.1944009249       20.3077504956  MEMB      66              0.0000000000
      8144        66  DOPC      C14            -0.6023485659      -36.9263148974       20.9837094965  MEMB      66              0.0000000000
      8145        66  DOPC      H14A           -0.3450259676      -37.4930299880       20.1010887865  MEMB      66              0.0000000000
      8146        66  DOPC      H14B           -0.3764700157      -37.5050795449       21.8671179446  MEMB      66              0.0000000000
      8147        66  DOPC      H14C           -1.6787722643      -36.8408138527       21.0037551454  MEMB      66              0.0000000000
      8148        66  DOPC      C15            -0.4686944728      -34.8868979721       22.2139631354  MEMB      66              0.0000000000
      8149        66  DOPC      H15A           -1.5175295657      -34.7644845847       21.9873362856  MEMB      66              0.0000000000
      8150        66  DOPC      H15B           -0.0288349266      -33.9014563444       22.2567221021  MEMB      66              0.0000000000
      8151        66  DOPC      H15C           -0.2175698978      -35.3951582958       23.1332061811  MEMB      66              0.0000000000
      8152        66  DOPC      C11            -0.3085317668      -35.6391673532       18.2938064785  MEMB      66              0.0000000000
      8153        66  DOPC      H11A           -0.9353383267      -36.5492733659       18.4084428913  MEMB      66              0.0000000000
      8154        66  DOPC      H11B           -0.8111203028      -35.1086638983       17.4569719889  MEMB      66              0.0000000000
      8155        66  DOPC      P               1.8898509849      -34.7617129978       17.2069043488  MEMB      66              0.0000000000
      8156        66  DOPC      O13             3.3430687955      -34.9373443526       17.6179646869  MEMB      66              0.0000000000
      8157        66  DOPC      O14             1.2829461695      -33.4187766032       17.2431103238  MEMB      66              0.0000000000
      8158        66  DOPC      O12             1.0311784362      -35.9070577938       17.9280183901  MEMB      66              0.0000000000
      8159        66  DOPC      O11             1.6896706331      -35.4341284591       15.8415749707  MEMB      66              0.0000000000
      8160        66  DOPC      C1              1.5118954899      -36.7762492251       15.5394455949  MEMB      66              0.0000000000
      8161        66  DOPC      HA              0.4143698021      -36.9225067261       15.6309170666  MEMB      66              0.0000000000
      8162        66  DOPC      HB              1.9716672901      -37.4052519498       16.3314596944  MEMB      66              0.0000000000
      8163        66  DOPC      C2              1.8163032215      -37.1212791402       14.1362546124  MEMB      66              0.0000000000
      8164        66  DOPC      HS              2.9084664224      -37.2401660197       13.9708262377  MEMB      66              0.0000000000
      8165        66  DOPC      O21             1.3420475979      -36.0586441164       13.2590860990  MEMB      66              0.0000000000
      8166        66  DOPC      C21             1.9020618641      -35.8676561966       12.0809706119  MEMB      66              0.0000000000
      8167        66  DOPC      O22             3.0320389930      -36.1909829392       11.7936409643  MEMB      66              0.0000000000
      8168        66  DOPC      C22             1.1037848900      -34.8174969855       11.3007715854  MEMB      66              0.0000000000
      8169        66  DOPC      H2R             0.3837573171      -35.3985922075       10.6857836594  MEMB      66              0.0000000000
      8170        66  DOPC      H2S             1.8841136372      -34.3388919472       10.6712115891  MEMB      66              0.0000000000
      8171        66  DOPC      C3              1.1097910604      -38.5048352959       13.6412065678  MEMB      66              0.0000000000
      8172        66  DOPC      HX              0.0503048828      -38.3458227716       13.9353577613  MEMB      66              0.0000000000
      8173        66  DOPC      HY              1.5033632989      -39.2793463622       14.3337056142  MEMB      66              0.0000000000
      8174        66  DOPC      O31             1.5451805878      -38.9728158550       12.3794391248  MEMB      66              0.0000000000
      8175        66  DOPC      C31             0.6593929381      -39.4969472563       11.5061440860  MEMB      66              0.0000000000
      8176        66  DOPC      O32            -0.5294892197      -39.5367640368       11.6662485272  MEMB      66              0.0000000000
      8177        66  DOPC      C32             1.4170426948      -40.0013120678       10.2494903097  MEMB      66              0.0000000000
      8178        66  DOPC      H2X             2.3970703530      -40.4646243905       10.4928165123  MEMB      66              0.0000000000
      8179        66  DOPC      H2Y             0.7910154991      -40.7588436165        9.7312653605  MEMB      66              0.0000000000
      8180        66  DOPC      C23             0.2452272341      -33.8554905063       12.1755113036  MEMB      66              0.0000000000
      8181        66  DOPC      H3R             0.8351718432      -33.2189615575       12.8691378120  MEMB      66              0.0000000000
      8182        66  DOPC      H3S            -0.5977390559      -34.4800110603       12.5411652234  MEMB      66              0.0000000000
      8183        66  DOPC      C24            -0.3079392733      -32.8217149452       11.1983157973  MEMB      66              0.0000000000
      8184        66  DOPC      H4R             0.4603691242      -32.3149003794       10.5760919492  MEMB      66              0.0000000000
      8185        66  DOPC      H4S            -0.6967884386      -32.0059053547       11.8445138154  MEMB      66              0.0000000000
      8186        66  DOPC      C25            -1.5367662579      -33.2868600965       10.3292716630  MEMB      66              0.0000000000
      8187        66  DOPC      H5R            -2.3895293950      -33.6839177438       10.9204242229  MEMB      66              0.0000000000
      8188        66  DOPC      H5S            -1.2216665276      -34.2626153448        9.9015621685  MEMB      66              0.0000000000
      8189        66  DOPC      C26            -2.0742554785      -32.2532754576        9.2997287321  MEMB      66              0.0000000000
      8190        66  DOPC      H6R            -2.3215490729      -31.2415681022        9.6865312979  MEMB      66              0.0000000000
      8191        66  DOPC      H6S            -3.0200578945      -32.6411790112        8.8646314380  MEMB      66              0.0000000000
      8192        66  DOPC      C27            -1.2871049144      -32.0169787059        7.9977234263  MEMB      66              0.0000000000
      8193        66  DOPC      H7R            -0.3394236742      -31.4585644510        8.1539121290  MEMB      66              0.0000000000
      8194        66  DOPC      H7S            -1.9180602421      -31.4262563500        7.2996810172  MEMB      66              0.0000000000
      8195        66  DOPC      C28            -0.7788567355      -33.3948768614        7.3870492903  MEMB      66              0.0000000000
      8196        66  DOPC      H8R            -0.1667217748      -33.8518242491        8.1937773926  MEMB      66              0.0000000000
      8197        66  DOPC      H8S            -0.0382706352      -33.1900917025        6.5846047458  MEMB      66              0.0000000000
      8198        66  DOPC      C29            -1.8663509655      -34.3518176178        6.9253524686  MEMB      66              0.0000000000
      8199        66  DOPC      H9R            -2.1460571975      -35.1819358154        7.5906851619  MEMB      66              0.0000000000
      8200        66  DOPC      C210           -2.3593478025      -34.2771910587        5.6297454442  MEMB      66              0.0000000000
      8201        66  DOPC      H10R           -3.0304888906      -35.0202226749        5.1742526121  MEMB      66              0.0000000000
      8202        66  DOPC      C211           -1.9287714033      -33.2337431349        4.5680166278  MEMB      66              0.0000000000
      8203        66  DOPC      H11R           -0.9317149388      -33.6153160601        4.2604425088  MEMB      66              0.0000000000
      8204        66  DOPC      H11S           -1.7725502528      -32.2015005381        4.9480048193  MEMB      66              0.0000000000
      8205        66  DOPC      C212           -2.8582019163      -33.1526863004        3.4069074860  MEMB      66              0.0000000000
      8206        66  DOPC      H12R           -3.7148028973      -32.5631382116        3.7980452916  MEMB      66              0.0000000000
      8207        66  DOPC      H12S           -3.3684083275      -34.1020140867        3.1371160446  MEMB      66              0.0000000000
      8208        66  DOPC      C213           -2.3920730494      -32.6568395398        2.0236912787  MEMB      66              0.0000000000
      8209        66  DOPC      H13R           -1.9310783225      -31.6534956059        2.1465980141  MEMB      66              0.0000000000
      8210        66  DOPC      H13S           -3.2802414284      -32.4327145217        1.3950060642  MEMB      66              0.0000000000
      8211        66  DOPC      C214           -1.4915648190      -33.5949885062        1.3219773214  MEMB      66              0.0000000000
      8212        66  DOPC      H14R           -1.8311435006      -34.6435587820        1.4616468909  MEMB      66              0.0000000000
      8213        66  DOPC      H14S           -0.4238475806      -33.5043293341        1.6153725782  MEMB      66              0.0000000000
      8214        66  DOPC      C215           -1.4706373539      -33.2894676769       -0.2041311528  MEMB      66              0.0000000000
      8215        66  DOPC      H15R           -0.5553427459      -33.6489193638       -0.7211912332  MEMB      66              0.0000000000
      8216        66  DOPC      H15S           -1.2746617033      -32.2029376455       -0.3280945389  MEMB      66              0.0000000000
      8217        66  DOPC      C216           -2.7730169931      -33.5671533144       -0.9802659730  MEMB      66              0.0000000000
      8218        66  DOPC      H16R           -2.6823316676      -32.8565089645       -1.8294309482  MEMB      66              0.0000000000
      8219        66  DOPC      H16S           -3.5915929889      -33.2548378113       -0.2971030659  MEMB      66              0.0000000000
      8220        66  DOPC      C217           -2.9826250325      -35.0112053468       -1.5676712267  MEMB      66              0.0000000000
      8221        66  DOPC      H17R           -3.8947146400      -34.9236991881       -2.1959668689  MEMB      66              0.0000000000
      8222        66  DOPC      H17S           -3.3210468924      -35.6539571576       -0.7270389064  MEMB      66              0.0000000000
      8223        66  DOPC      C218           -1.9027007212      -35.5937399311       -2.5359174520  MEMB      66              0.0000000000
      8224        66  DOPC      H18R           -2.3028743224      -36.4418684113       -3.1316186228  MEMB      66              0.0000000000
      8225        66  DOPC      H18S           -0.9571156950      -35.8318176334       -2.0034618225  MEMB      66              0.0000000000
      8226        66  DOPC      H18T           -1.5414652937      -34.7542367361       -3.1676330856  MEMB      66              0.0000000000
      8227        66  DOPC      C33             1.6321653670      -38.9109873030        9.2005271395  MEMB      66              0.0000000000
      8228        66  DOPC      H3X             1.8928453744      -39.4685250419        8.2755853470  MEMB      66              0.0000000000
      8229        66  DOPC      H3Y             2.5039807104      -38.3578573369        9.6107782272  MEMB      66              0.0000000000
      8230        66  DOPC      C34             0.5230181616      -37.9447730914        8.8877286443  MEMB      66              0.0000000000
      8231        66  DOPC      H4X             0.2620813067      -37.2620069372        9.7244266178  MEMB      66              0.0000000000
      8232        66  DOPC      H4Y            -0.3785311569      -38.5047609271        8.5591811258  MEMB      66              0.0000000000
      8233        66  DOPC      C35             0.7948317941      -37.0673337370        7.7144074752  MEMB      66              0.0000000000
      8234        66  DOPC      H5X            -0.0813256099      -36.4215573931        7.4916016135  MEMB      66              0.0000000000
      8235        66  DOPC      H5Y             0.7911281015      -37.7307536799        6.8232383909  MEMB      66              0.0000000000
      8236        66  DOPC      C36             1.9553364209      -36.0884840338        7.7557959530  MEMB      66              0.0000000000
      8237        66  DOPC      H6X             1.7629663925      -35.2200766623        8.4215164513  MEMB      66              0.0000000000
      8238        66  DOPC      H6Y             2.8260100124      -36.5238623812        8.2912344075  MEMB      66              0.0000000000
      8239        66  DOPC      C37             2.3371658183      -35.4956590697        6.2977085969  MEMB      66              0.0000000000
      8240        66  DOPC      H7X             2.6952727695      -36.3553037557        5.6918279032  MEMB      66              0.0000000000
      8241        66  DOPC      H7Y             1.4359320001      -35.1880027736        5.7254800397  MEMB      66              0.0000000000
      8242        66  DOPC      C38             3.4251159036      -34.4713327674        6.2375564609  MEMB      66              0.0000000000
      8243        66  DOPC      H8X             3.8432086445      -34.6355796890        5.2214151007  MEMB      66              0.0000000000
      8244        66  DOPC      H8Y             4.2527664679      -34.4957800101        6.9783113151  MEMB      66              0.0000000000
      8245        66  DOPC      C39             2.7624776428      -33.1209929827        6.2606542340  MEMB      66              0.0000000000
      8246        66  DOPC      H9X             2.1591353320      -33.0157423619        7.1743831755  MEMB      66              0.0000000000
      8247        66  DOPC      C310            2.7566431366      -32.1419927607        5.3067447762  MEMB      66              0.0000000000
      8248        66  DOPC      H10X            2.1498284181      -31.2281308780        5.3881826440  MEMB      66              0.0000000000
      8249        66  DOPC      C311            3.4278990743      -32.2244360894        3.9302323209  MEMB      66              0.0000000000
      8250        66  DOPC      H11X            4.4044877530      -32.7346096570        4.0727755042  MEMB      66              0.0000000000
      8251        66  DOPC      H11Y            3.5963411421      -31.2986470329        3.3395854836  MEMB      66              0.0000000000
      8252        66  DOPC      C312            2.7449256710      -33.2133492904        3.0424962963  MEMB      66              0.0000000000
      8253        66  DOPC      H12X            1.8257267468      -32.7161379040        2.6654346672  MEMB      66              0.0000000000
      8254        66  DOPC      H12Y            2.4049647818      -34.1032368218        3.6142020592  MEMB      66              0.0000000000
      8255        66  DOPC      C313            3.6866454800      -33.8034011615        1.9542447726  MEMB      66              0.0000000000
      8256        66  DOPC      H13X            4.5582374285      -34.1943709093        2.5215113771  MEMB      66              0.0000000000
      8257        66  DOPC      H13Y            3.2506134209      -34.7839288711        1.6665598741  MEMB      66              0.0000000000
      8258        66  DOPC      C314            4.0045436741      -32.9193079308        0.7875749891  MEMB      66              0.0000000000
      8259        66  DOPC      H14X            3.1355752162      -32.2839649863        0.5127033541  MEMB      66              0.0000000000
      8260        66  DOPC      H14Y            4.7468060026      -32.2308985935        1.2452437162  MEMB      66              0.0000000000
      8261        66  DOPC      C315            4.5220813679      -33.6636757934       -0.4241235382  MEMB      66              0.0000000000
      8262        66  DOPC      H15X            5.3896795716      -34.3314187869       -0.2351425406  MEMB      66              0.0000000000
      8263        66  DOPC      H15Y            4.9329341342      -32.8494518637       -1.0585992415  MEMB      66              0.0000000000
      8264        66  DOPC      C316            3.4212441464      -34.4966631681       -1.1322322135  MEMB      66              0.0000000000
      8265        66  DOPC      H16X            2.8999565695      -35.2230084842       -0.4726849555  MEMB      66              0.0000000000
      8266        66  DOPC      H16Y            2.7269898331      -33.6737428958       -1.4063379990  MEMB      66              0.0000000000
      8267        66  DOPC      C317            3.8258005695      -35.1619933793       -2.4437377674  MEMB      66              0.0000000000
      8268        66  DOPC      H17X            4.3840917932      -34.4614674622       -3.1009248268  MEMB      66              0.0000000000
      8269        66  DOPC      H17Y            4.5447972565      -35.9846517697       -2.2422457118  MEMB      66              0.0000000000
      8270        66  DOPC      C318            2.6242375954      -35.7576180117       -3.2132924373  MEMB      66              0.0000000000
      8271        66  DOPC      H18X            2.1914134826      -36.7017752996       -2.8188920258  MEMB      66              0.0000000000
      8272        66  DOPC      H18Y            1.8889353726      -34.9264959503       -3.2670334726  MEMB      66              0.0000000000
      8273        66  DOPC      H18Z            3.0497759468      -35.9704835597       -4.2172476601  MEMB      66              0.0000000000
      8274        67  DOPC      N             -25.6282787560       26.3335183984       19.0773774531  MEMB      67              0.0000000000
      8275        67  DOPC      C12           -25.4532447403       25.4025660509       17.8322260213  MEMB      67              0.0000000000
      8276        67  DOPC      H12A          -24.4955815871       24.9044938351       17.8669440063  MEMB      67              0.0000000000
      8277        67  DOPC      H12B          -25.4131783365       25.9102394403       16.8798277666  MEMB      67              0.0000000000
      8278        67  DOPC      C13           -27.0122151501       26.8291811170       19.0745269716  MEMB      67              0.0000000000
      8279        67  DOPC      H13A          -27.3101881335       26.9448130013       18.0429062403  MEMB      67              0.0000000000
      8280        67  DOPC      H13B          -27.7500799694       26.1897820648       19.5361810131  MEMB      67              0.0000000000
      8281        67  DOPC      H13C          -27.0765653241       27.8435267913       19.4397145007  MEMB      67              0.0000000000
      8282        67  DOPC      C14           -24.6345563564       27.5151455041       18.7959401828  MEMB      67              0.0000000000
      8283        67  DOPC      H14A          -24.8565309745       27.8837365703       17.8053504485  MEMB      67              0.0000000000
      8284        67  DOPC      H14B          -24.7351566357       28.2894287870       19.5421071012  MEMB      67              0.0000000000
      8285        67  DOPC      H14C          -23.6869852698       27.0067563816       18.6956933631  MEMB      67              0.0000000000
      8286        67  DOPC      C15           -25.1963288018       25.6929789333       20.3333566648  MEMB      67              0.0000000000
      8287        67  DOPC      H15A          -25.0288823433       26.4837712657       21.0496033934  MEMB      67              0.0000000000
      8288        67  DOPC      H15B          -24.2606833744       25.1986568216       20.1174554813  MEMB      67              0.0000000000
      8289        67  DOPC      H15C          -25.9069077594       24.9595558294       20.6848791848  MEMB      67              0.0000000000
      8290        67  DOPC      C11           -26.5447284704       24.2658375230       17.8019746581  MEMB      67              0.0000000000
      8291        67  DOPC      H11A          -27.5613752841       24.5957141308       17.4987719427  MEMB      67              0.0000000000
      8292        67  DOPC      H11B          -26.2174606638       23.5603720393       17.0085420804  MEMB      67              0.0000000000
      8293        67  DOPC      P             -25.6721304227       22.2689477137       19.2806760361  MEMB      67              0.0000000000
      8294        67  DOPC      O13           -26.0664476420       21.2464669447       18.2094645573  MEMB      67              0.0000000000
      8295        67  DOPC      O14           -25.7811379125       21.8026671668       20.6695149361  MEMB      67              0.0000000000
      8296        67  DOPC      O12           -26.7251159206       23.4994163468       19.0009289266  MEMB      67              0.0000000000
      8297        67  DOPC      O11           -24.2444742158       22.8762475417       18.9240135772  MEMB      67              0.0000000000
      8298        67  DOPC      C1            -23.1367010022       22.0433545660       18.6331366267  MEMB      67              0.0000000000
      8299        67  DOPC      HA            -23.5359847641       21.1688437250       18.0762486117  MEMB      67              0.0000000000
      8300        67  DOPC      HB            -22.5906004411       21.7305225198       19.5486864359  MEMB      67              0.0000000000
      8301        67  DOPC      C2            -22.3057060970       22.7723562821       17.6788300111  MEMB      67              0.0000000000
      8302        67  DOPC      HS            -22.0404628273       23.7394645185       18.1570230254  MEMB      67              0.0000000000
      8303        67  DOPC      O21           -23.0362697757       22.9214527142       16.4549640702  MEMB      67              0.0000000000
      8304        67  DOPC      C21           -22.8878771306       24.1170425259       15.8022258166  MEMB      67              0.0000000000
      8305        67  DOPC      O22           -22.0379069928       24.9719791541       16.0036740686  MEMB      67              0.0000000000
      8306        67  DOPC      C22           -23.9962654243       24.0999936096       14.7315416125  MEMB      67              0.0000000000
      8307        67  DOPC      H2R           -24.9963609931       23.9172091487       15.1795589528  MEMB      67              0.0000000000
      8308        67  DOPC      H2S           -23.7856082763       23.1529339308       14.1902257213  MEMB      67              0.0000000000
      8309        67  DOPC      C3            -20.9513591559       21.9073649583       17.3266628910  MEMB      67              0.0000000000
      8310        67  DOPC      HX            -20.4222527558       21.6824850570       18.2773450469  MEMB      67              0.0000000000
      8311        67  DOPC      HY            -20.3250597252       22.3700189444       16.5341849705  MEMB      67              0.0000000000
      8312        67  DOPC      O31           -21.4442964975       20.6692029790       16.8980147499  MEMB      67              0.0000000000
      8313        67  DOPC      C31           -21.1183159369       20.1678608274       15.7102242629  MEMB      67              0.0000000000
      8314        67  DOPC      O32           -20.5142160964       20.7505647543       14.8372689096  MEMB      67              0.0000000000
      8315        67  DOPC      C32           -21.8481599929       18.8284425252       15.6049090071  MEMB      67              0.0000000000
      8316        67  DOPC      H2X           -21.1322046074       18.0046853230       15.3971753299  MEMB      67              0.0000000000
      8317        67  DOPC      H2Y           -22.2334713055       18.5072521544       16.5962176339  MEMB      67              0.0000000000
      8318        67  DOPC      C23           -23.8826612226       25.3261232880       13.8211558021  MEMB      67              0.0000000000
      8319        67  DOPC      H3R           -22.9981830126       25.1789087443       13.1651469810  MEMB      67              0.0000000000
      8320        67  DOPC      H3S           -23.6246758129       26.1910345629       14.4689926690  MEMB      67              0.0000000000
      8321        67  DOPC      C24           -25.1695052225       25.4925621359       13.0013834156  MEMB      67              0.0000000000
      8322        67  DOPC      H4R           -25.9902887353       25.5871240373       13.7441439544  MEMB      67              0.0000000000
      8323        67  DOPC      H4S           -25.2506616694       24.6633804404       12.2664056235  MEMB      67              0.0000000000
      8324        67  DOPC      C25           -25.0461360891       26.8431742697       12.2181256271  MEMB      67              0.0000000000
      8325        67  DOPC      H5R           -24.0989045678       26.8002529965       11.6391339564  MEMB      67              0.0000000000
      8326        67  DOPC      H5S           -25.0473209471       27.7306126925       12.8865359358  MEMB      67              0.0000000000
      8327        67  DOPC      C26           -26.2590245004       27.0203311354       11.2752890635  MEMB      67              0.0000000000
      8328        67  DOPC      H6R           -26.0581546806       27.9331984806       10.6747516777  MEMB      67              0.0000000000
      8329        67  DOPC      H6S           -27.2123125686       27.0950127358       11.8409616644  MEMB      67              0.0000000000
      8330        67  DOPC      C27           -26.4926881069       25.8718133705       10.3077974250  MEMB      67              0.0000000000
      8331        67  DOPC      H7R           -27.3793792097       26.0697455428        9.6683271018  MEMB      67              0.0000000000
      8332        67  DOPC      H7S           -26.8235276676       24.9744484852       10.8731315966  MEMB      67              0.0000000000
      8333        67  DOPC      C28           -25.2886680022       25.4291759085        9.4982213856  MEMB      67              0.0000000000
      8334        67  DOPC      H8R           -25.4919399480       24.4212136737        9.0774911022  MEMB      67              0.0000000000
      8335        67  DOPC      H8S           -24.4395041915       25.3450575678       10.2096742903  MEMB      67              0.0000000000
      8336        67  DOPC      C29           -24.9716286644       26.3197870154        8.3556109819  MEMB      67              0.0000000000
      8337        67  DOPC      H9R           -25.6082609491       27.2163889042        8.3272463357  MEMB      67              0.0000000000
      8338        67  DOPC      C210          -23.9267278841       26.1836418290        7.4973461322  MEMB      67              0.0000000000
      8339        67  DOPC      H10R          -23.8061913113       27.0727669128        6.8610066715  MEMB      67              0.0000000000
      8340        67  DOPC      C211          -22.8999493347       25.0797422114        7.4780563729  MEMB      67              0.0000000000
      8341        67  DOPC      H11R          -23.2963735022       24.1949565265        8.0205717842  MEMB      67              0.0000000000
      8342        67  DOPC      H11S          -21.9353261148       25.3584582879        7.9535985453  MEMB      67              0.0000000000
      8343        67  DOPC      C212          -22.6882003726       24.5430555990        6.1053623910  MEMB      67              0.0000000000
      8344        67  DOPC      H12R          -23.5969510701       24.1906058596        5.5721903051  MEMB      67              0.0000000000
      8345        67  DOPC      H12S          -22.0196786033       23.6736720501        6.2830471989  MEMB      67              0.0000000000
      8346        67  DOPC      C213          -21.9465567575       25.5240506348        5.1649438091  MEMB      67              0.0000000000
      8347        67  DOPC      H13R          -21.3605754853       26.1467174437        5.8743329048  MEMB      67              0.0000000000
      8348        67  DOPC      H13S          -22.7436344543       26.1598494383        4.7236414586  MEMB      67              0.0000000000
      8349        67  DOPC      C214          -21.0750512660       25.0330552685        3.9781561373  MEMB      67              0.0000000000
      8350        67  DOPC      H14R          -20.1684291285       24.5237217318        4.3692272328  MEMB      67              0.0000000000
      8351        67  DOPC      H14S          -20.7585279897       25.9243282873        3.3952610593  MEMB      67              0.0000000000
      8352        67  DOPC      C215          -21.7049038326       23.9623406749        3.0646981847  MEMB      67              0.0000000000
      8353        67  DOPC      H15R          -22.5768615129       24.4016060154        2.5345504427  MEMB      67              0.0000000000
      8354        67  DOPC      H15S          -22.0298223522       23.1740282449        3.7769562133  MEMB      67              0.0000000000
      8355        67  DOPC      C216          -20.6385517240       23.3020648416        2.1606050243  MEMB      67              0.0000000000
      8356        67  DOPC      H16R          -19.9837431247       22.6738015721        2.8015657536  MEMB      67              0.0000000000
      8357        67  DOPC      H16S          -20.0632653965       24.1195583054        1.6757643000  MEMB      67              0.0000000000
      8358        67  DOPC      C217          -21.2156158047       22.4622615125        1.0893877145  MEMB      67              0.0000000000
      8359        67  DOPC      H17R          -21.9121991168       23.0458619195        0.4502457763  MEMB      67              0.0000000000
      8360        67  DOPC      H17S          -21.9199983752       21.7034335848        1.4923104576  MEMB      67              0.0000000000
      8361        67  DOPC      C218          -20.2738969197       21.6470408803        0.3478236146  MEMB      67              0.0000000000
      8362        67  DOPC      H18R          -19.4265546555       22.3261536368        0.1130082396  MEMB      67              0.0000000000
      8363        67  DOPC      H18S          -20.7026160144       21.1148258837       -0.5281143369  MEMB      67              0.0000000000
      8364        67  DOPC      H18T          -19.8400870291       20.8837557566        1.0286512296  MEMB      67              0.0000000000
      8365        67  DOPC      C33           -22.9830701572       19.0073126101       14.5345687523  MEMB      67              0.0000000000
      8366        67  DOPC      H3X           -23.2774814347       17.9854353228       14.2129943283  MEMB      67              0.0000000000
      8367        67  DOPC      H3Y           -22.6457728149       19.4684750133       13.5817409365  MEMB      67              0.0000000000
      8368        67  DOPC      C34           -24.2261188175       19.8627657720       14.8305821244  MEMB      67              0.0000000000
      8369        67  DOPC      H4X           -23.8489191053       20.9061042279       14.7715379476  MEMB      67              0.0000000000
      8370        67  DOPC      H4Y           -24.5766207702       19.7174160539       15.8747770206  MEMB      67              0.0000000000
      8371        67  DOPC      C35           -25.4364824778       19.6083792654       13.9309895418  MEMB      67              0.0000000000
      8372        67  DOPC      H5X           -25.9948698333       18.7178265333       14.2907673456  MEMB      67              0.0000000000
      8373        67  DOPC      H5Y           -25.0573611456       19.4211851508       12.9035913701  MEMB      67              0.0000000000
      8374        67  DOPC      C36           -26.4538122838       20.6830339946       14.0797056768  MEMB      67              0.0000000000
      8375        67  DOPC      H6X           -26.7877969839       20.7059456739       15.1390687335  MEMB      67              0.0000000000
      8376        67  DOPC      H6Y           -26.0806654371       21.7264737595       14.0002329877  MEMB      67              0.0000000000
      8377        67  DOPC      C37           -27.6608361192       20.5530627541       13.1678658186  MEMB      67              0.0000000000
      8378        67  DOPC      H7X           -27.9469775909       19.4795434355       13.1676782999  MEMB      67              0.0000000000
      8379        67  DOPC      H7Y           -28.6083272105       20.9046109573       13.6293801831  MEMB      67              0.0000000000
      8380        67  DOPC      C38           -27.4093173305       21.2408978686       11.7565336561  MEMB      67              0.0000000000
      8381        67  DOPC      H8X           -26.3860121924       20.8915594530       11.5013272301  MEMB      67              0.0000000000
      8382        67  DOPC      H8Y           -27.3705826802       22.3466630531       11.8570533815  MEMB      67              0.0000000000
      8383        67  DOPC      C39           -28.4454157318       20.8756564956       10.7405098981  MEMB      67              0.0000000000
      8384        67  DOPC      H9X           -29.5001724553       20.9368218933       11.0466915708  MEMB      67              0.0000000000
      8385        67  DOPC      C310          -28.3625666808       20.4867769121        9.4116933377  MEMB      67              0.0000000000
      8386        67  DOPC      H10X          -29.2586933141       20.3829184119        8.7822721629  MEMB      67              0.0000000000
      8387        67  DOPC      C311          -27.0849204394       20.3095934566        8.6033743220  MEMB      67              0.0000000000
      8388        67  DOPC      H11X          -26.1311206276       20.3565649486        9.1711604385  MEMB      67              0.0000000000
      8389        67  DOPC      H11Y          -27.0854830946       21.2294322629        7.9803036017  MEMB      67              0.0000000000
      8390        67  DOPC      C312          -26.9980454751       18.9778837363        7.7811409812  MEMB      67              0.0000000000
      8391        67  DOPC      H12X          -28.0072412378       18.8760077994        7.3278566291  MEMB      67              0.0000000000
      8392        67  DOPC      H12Y          -26.8661017877       18.0819861126        8.4247857909  MEMB      67              0.0000000000
      8393        67  DOPC      C313          -25.9626343380       18.9168389953        6.6066041422  MEMB      67              0.0000000000
      8394        67  DOPC      H13X          -24.9958392475       19.2996661489        6.9978475218  MEMB      67              0.0000000000
      8395        67  DOPC      H13Y          -25.7763872350       17.9134357994        6.1674963289  MEMB      67              0.0000000000
      8396        67  DOPC      C314          -26.3630315733       19.8189722895        5.4564510610  MEMB      67              0.0000000000
      8397        67  DOPC      H14X          -27.2873825954       19.4424456955        4.9684707153  MEMB      67              0.0000000000
      8398        67  DOPC      H14Y          -26.5334378250       20.8429764049        5.8523021976  MEMB      67              0.0000000000
      8399        67  DOPC      C315          -25.3468651550       19.9035590067        4.2725222686  MEMB      67              0.0000000000
      8400        67  DOPC      H15X          -25.2811474096       18.9135111918        3.7727150634  MEMB      67              0.0000000000
      8401        67  DOPC      H15Y          -24.4244408854       20.2512580619        4.7849287578  MEMB      67              0.0000000000
      8402        67  DOPC      C316          -25.6907948362       21.0817655086        3.3348642189  MEMB      67              0.0000000000
      8403        67  DOPC      H16X          -25.7305195088       22.0316016450        3.9098026381  MEMB      67              0.0000000000
      8404        67  DOPC      H16Y          -24.9206924393       21.2817840627        2.5594565460  MEMB      67              0.0000000000
      8405        67  DOPC      C317          -27.1018161386       20.9623479667        2.6332835903  MEMB      67              0.0000000000
      8406        67  DOPC      H17X          -27.8542422672       20.4636168801        3.2809271307  MEMB      67              0.0000000000
      8407        67  DOPC      H17Y          -27.4677276397       22.0055802034        2.5233007780  MEMB      67              0.0000000000
      8408        67  DOPC      C318          -26.9949077791       20.3586246704        1.2409598483  MEMB      67              0.0000000000
      8409        67  DOPC      H18X          -28.0085088580       20.3184867192        0.7878339848  MEMB      67              0.0000000000
      8410        67  DOPC      H18Y          -26.3680925169       21.0956940174        0.6949258417  MEMB      67              0.0000000000
      8411        67  DOPC      H18Z          -26.5637682311       19.3348971281        1.2614947334  MEMB      67              0.0000000000
      8412        68  DOPC      N             -35.9643328494      -10.3055156846       19.2869234459  MEMB      68              0.0000000000
      8413        68  DOPC      C12           -35.1175181523      -11.2286658885       18.3534661711  MEMB      68              0.0000000000
      8414        68  DOPC      H12A          -35.7888710447      -11.6413992630       17.6149972687  MEMB      68              0.0000000000
      8415        68  DOPC      H12B          -34.8553886398      -11.9744422549       19.0893368898  MEMB      68              0.0000000000
      8416        68  DOPC      C13           -37.2250027317      -11.0493745174       19.6568767775  MEMB      68              0.0000000000
      8417        68  DOPC      H13A          -37.8657578669      -10.3653206418       20.1934427088  MEMB      68              0.0000000000
      8418        68  DOPC      H13B          -37.7819236128      -11.3625519428       18.7861534378  MEMB      68              0.0000000000
      8419        68  DOPC      H13C          -37.1062414202      -11.9128266016       20.2946432747  MEMB      68              0.0000000000
      8420        68  DOPC      C14           -36.3309349022       -8.9908599480       18.6566156368  MEMB      68              0.0000000000
      8421        68  DOPC      H14A          -35.5183520845       -8.2821643541       18.5944883918  MEMB      68              0.0000000000
      8422        68  DOPC      H14B          -36.6976221265       -9.2054830524       17.6637020130  MEMB      68              0.0000000000
      8423        68  DOPC      H14C          -37.0781491387       -8.5717313583       19.3141886590  MEMB      68              0.0000000000
      8424        68  DOPC      C15           -35.3849514195      -10.0378627580       20.5527277362  MEMB      68              0.0000000000
      8425        68  DOPC      H15A          -36.0599366015       -9.6269385451       21.2888907172  MEMB      68              0.0000000000
      8426        68  DOPC      H15B          -34.5867279928       -9.3210129193       20.4287694159  MEMB      68              0.0000000000
      8427        68  DOPC      H15C          -34.8186364290      -10.8842732588       20.9122782382  MEMB      68              0.0000000000
      8428        68  DOPC      C11           -33.9305389211      -10.5527628673       17.5381503860  MEMB      68              0.0000000000
      8429        68  DOPC      H11A          -33.5595559063      -11.3032850634       16.8078018796  MEMB      68              0.0000000000
      8430        68  DOPC      H11B          -34.2796323433       -9.7195156888       16.8915022551  MEMB      68              0.0000000000
      8431        68  DOPC      P             -31.8845653638      -10.9031093411       19.0451699520  MEMB      68              0.0000000000
      8432        68  DOPC      O13           -32.0792439721      -10.8047750652       20.5226329682  MEMB      68              0.0000000000
      8433        68  DOPC      O14           -30.5371363309      -10.5381558426       18.4898806581  MEMB      68              0.0000000000
      8434        68  DOPC      O12           -32.9226848707      -10.0950001891       18.3266754168  MEMB      68              0.0000000000
      8435        68  DOPC      O11           -32.2909916844      -12.3176435862       18.5708808516  MEMB      68              0.0000000000
      8436        68  DOPC      C1            -31.3878962587      -13.3458099282       18.3121955569  MEMB      68              0.0000000000
      8437        68  DOPC      HA            -31.6320993497      -14.2353596759       18.9313780887  MEMB      68              0.0000000000
      8438        68  DOPC      HB            -30.3501980411      -12.9908202777       18.4896370339  MEMB      68              0.0000000000
      8439        68  DOPC      C2            -31.6362231308      -13.8643477845       16.8052259453  MEMB      68              0.0000000000
      8440        68  DOPC      HS            -31.1260388356      -14.8343052123       16.6229736961  MEMB      68              0.0000000000
      8441        68  DOPC      O21           -31.3339819103      -12.8976240311       15.7692003968  MEMB      68              0.0000000000
      8442        68  DOPC      C21           -30.0022203049      -12.7056108278       15.5890276749  MEMB      68              0.0000000000
      8443        68  DOPC      O22           -29.1433591933      -13.4306101884       16.0202596806  MEMB      68              0.0000000000
      8444        68  DOPC      C22           -29.8801771150      -11.5548564871       14.6090409108  MEMB      68              0.0000000000
      8445        68  DOPC      H2R           -28.7937569617      -11.3332280541       14.5390891854  MEMB      68              0.0000000000
      8446        68  DOPC      H2S           -30.2728197625      -10.6159447454       15.0546836187  MEMB      68              0.0000000000
      8447        68  DOPC      C3            -33.1966359810      -14.3879465003       16.6375904847  MEMB      68              0.0000000000
      8448        68  DOPC      HX            -33.9162247838      -13.6321195606       17.0186927972  MEMB      68              0.0000000000
      8449        68  DOPC      HY            -33.1714929039      -15.2984063262       17.2737918280  MEMB      68              0.0000000000
      8450        68  DOPC      O31           -33.4638796149      -14.7459738739       15.2402381434  MEMB      68              0.0000000000
      8451        68  DOPC      C31           -34.0685605106      -13.8540902813       14.4976014673  MEMB      68              0.0000000000
      8452        68  DOPC      O32           -34.4946304185      -12.7849584658       14.8226080303  MEMB      68              0.0000000000
      8453        68  DOPC      C32           -34.1025083364      -14.3631891009       13.0498827725  MEMB      68              0.0000000000
      8454        68  DOPC      H2X           -33.0795760464      -14.3311250205       12.6175604381  MEMB      68              0.0000000000
      8455        68  DOPC      H2Y           -34.4418740305      -15.4189010180       12.9818819879  MEMB      68              0.0000000000
      8456        68  DOPC      C23           -30.3677245436      -12.0289451289       13.1954796691  MEMB      68              0.0000000000
      8457        68  DOPC      H3R           -31.4296636769      -12.3501361433       13.2541521233  MEMB      68              0.0000000000
      8458        68  DOPC      H3S           -29.8787363014      -12.9457060955       12.8020834482  MEMB      68              0.0000000000
      8459        68  DOPC      C24           -30.3148806248      -10.9338843311       12.1735075577  MEMB      68              0.0000000000
      8460        68  DOPC      H4R           -29.3032335134      -10.5845162505       11.8754594857  MEMB      68              0.0000000000
      8461        68  DOPC      H4S           -30.8130580652      -10.0259486597       12.5757426065  MEMB      68              0.0000000000
      8462        68  DOPC      C25           -30.9115832528      -11.3499672381       10.8772524167  MEMB      68              0.0000000000
      8463        68  DOPC      H5R           -31.9618595025      -11.5987526269       11.1405896161  MEMB      68              0.0000000000
      8464        68  DOPC      H5S           -30.4724013682      -12.2971626627       10.4974344302  MEMB      68              0.0000000000
      8465        68  DOPC      C26           -30.7868770872      -10.4546199048        9.5962922709  MEMB      68              0.0000000000
      8466        68  DOPC      H6R           -29.7006454092      -10.3656045863        9.3806567344  MEMB      68              0.0000000000
      8467        68  DOPC      H6S           -31.1759239525       -9.4354954897        9.8068822651  MEMB      68              0.0000000000
      8468        68  DOPC      C27           -31.6432724760      -10.9570013324        8.4509038334  MEMB      68              0.0000000000
      8469        68  DOPC      H7R           -32.6818997767      -11.1342623836        8.8032572039  MEMB      68              0.0000000000
      8470        68  DOPC      H7S           -31.3592807335      -12.0254860843        8.3413107135  MEMB      68              0.0000000000
      8471        68  DOPC      C28           -31.5095064300      -10.3494822695        7.0546582021  MEMB      68              0.0000000000
      8472        68  DOPC      H8R           -31.9528715673      -10.9476876630        6.2300986476  MEMB      68              0.0000000000
      8473        68  DOPC      H8S           -30.4187908084      -10.2391948795        6.8743884153  MEMB      68              0.0000000000
      8474        68  DOPC      C29           -32.2142959036       -8.9318636848        7.0122966434  MEMB      68              0.0000000000
      8475        68  DOPC      H9R           -31.5752420764       -8.0772933127        7.2793539117  MEMB      68              0.0000000000
      8476        68  DOPC      C210          -33.4318698820       -8.6245253294        6.6649861036  MEMB      68              0.0000000000
      8477        68  DOPC      H10R          -33.7179940993       -7.5627644505        6.6932206065  MEMB      68              0.0000000000
      8478        68  DOPC      C211          -34.4346767490       -9.6969268664        6.2853149647  MEMB      68              0.0000000000
      8479        68  DOPC      H11R          -35.2443537419       -9.7367457471        7.0450242177  MEMB      68              0.0000000000
      8480        68  DOPC      H11S          -34.0069587301      -10.7187132175        6.1996936528  MEMB      68              0.0000000000
      8481        68  DOPC      C212          -35.0940452096       -9.4388698338        4.9414265223  MEMB      68              0.0000000000
      8482        68  DOPC      H12R          -34.3112047427       -9.5648631608        4.1632184469  MEMB      68              0.0000000000
      8483        68  DOPC      H12S          -35.5734129586       -8.4469494923        4.7978268081  MEMB      68              0.0000000000
      8484        68  DOPC      C213          -36.3383426785      -10.4213203245        4.7575146068  MEMB      68              0.0000000000
      8485        68  DOPC      H13R          -37.0977472383      -10.2502030044        5.5501965515  MEMB      68              0.0000000000
      8486        68  DOPC      H13S          -35.9060696323      -11.4366377969        4.8863208057  MEMB      68              0.0000000000
      8487        68  DOPC      C214          -37.1062671057      -10.3224354883        3.4334378298  MEMB      68              0.0000000000
      8488        68  DOPC      H14R          -37.7271977164       -9.4302861387        3.2035766176  MEMB      68              0.0000000000
      8489        68  DOPC      H14S          -37.9037758154      -11.0958885371        3.4418886526  MEMB      68              0.0000000000
      8490        68  DOPC      C215          -36.2945642400      -10.5585028932        2.1304813767  MEMB      68              0.0000000000
      8491        68  DOPC      H15R          -35.3544451642       -9.9668270671        2.1100633395  MEMB      68              0.0000000000
      8492        68  DOPC      H15S          -36.9874307229      -10.3406131739        1.2897784596  MEMB      68              0.0000000000
      8493        68  DOPC      C216          -35.8697442695      -12.0743603567        1.9684734629  MEMB      68              0.0000000000
      8494        68  DOPC      H16R          -36.5994969155      -12.7324238643        2.4868691258  MEMB      68              0.0000000000
      8495        68  DOPC      H16S          -34.9267366590      -12.1243095085        2.5537623136  MEMB      68              0.0000000000
      8496        68  DOPC      C217          -35.6312003762      -12.4710651694        0.5472349074  MEMB      68              0.0000000000
      8497        68  DOPC      H17R          -34.9586382540      -11.8138086803       -0.0443689542  MEMB      68              0.0000000000
      8498        68  DOPC      H17S          -36.6010341513      -12.4033524660        0.0095006095  MEMB      68              0.0000000000
      8499        68  DOPC      C218          -35.5074914413      -14.0009559351        0.3845628743  MEMB      68              0.0000000000
      8500        68  DOPC      H18R          -36.2542449617      -14.4162033577        1.0946674238  MEMB      68              0.0000000000
      8501        68  DOPC      H18S          -34.4732474549      -14.3711991169        0.5506357827  MEMB      68              0.0000000000
      8502        68  DOPC      H18T          -35.8173135113      -14.3904704071       -0.6087205259  MEMB      68              0.0000000000
      8503        68  DOPC      C33           -34.7663621435      -13.3504197928       12.1605663537  MEMB      68              0.0000000000
      8504        68  DOPC      H3X           -34.3965581642      -12.3397050084       12.4362863704  MEMB      68              0.0000000000
      8505        68  DOPC      H3Y           -35.8735980665      -13.2940485066       12.2324828845  MEMB      68              0.0000000000
      8506        68  DOPC      C34           -34.4914190565      -13.3595787680       10.6533840072  MEMB      68              0.0000000000
      8507        68  DOPC      H4X           -33.4082937548      -13.2061189188       10.4594497904  MEMB      68              0.0000000000
      8508        68  DOPC      H4Y           -35.0444822210      -12.5196887186       10.1811267116  MEMB      68              0.0000000000
      8509        68  DOPC      C35           -34.8336994156      -14.6405461938        9.8200924231  MEMB      68              0.0000000000
      8510        68  DOPC      H5X           -35.0853916905      -14.4476634309        8.7553072447  MEMB      68              0.0000000000
      8511        68  DOPC      H5Y           -35.7295610001      -15.1161180560       10.2735067473  MEMB      68              0.0000000000
      8512        68  DOPC      C36           -33.7272319385      -15.7362545509        9.8725828831  MEMB      68              0.0000000000
      8513        68  DOPC      H6X           -32.9748197251      -15.3976715277        9.1285680373  MEMB      68              0.0000000000
      8514        68  DOPC      H6Y           -33.2993626187      -15.8001970364       10.8958913445  MEMB      68              0.0000000000
      8515        68  DOPC      C37           -34.1560081527      -17.1302181529        9.4871393058  MEMB      68              0.0000000000
      8516        68  DOPC      H7X           -33.4163243981      -17.8762706131        9.8485181010  MEMB      68              0.0000000000
      8517        68  DOPC      H7Y           -34.9840387549      -17.5198722260       10.1171044871  MEMB      68              0.0000000000
      8518        68  DOPC      C38           -34.6297577926      -17.4308665909        8.1043310452  MEMB      68              0.0000000000
      8519        68  DOPC      H8X           -35.4948766556      -16.7497331785        7.9561831328  MEMB      68              0.0000000000
      8520        68  DOPC      H8Y           -34.9117266954      -18.4921272055        8.2732697940  MEMB      68              0.0000000000
      8521        68  DOPC      C39           -33.6525055124      -17.4386561201        7.0152774443  MEMB      68              0.0000000000
      8522        68  DOPC      H9X           -32.9516292209      -18.2839604580        7.0803387276  MEMB      68              0.0000000000
      8523        68  DOPC      C310          -33.5039686169      -16.5653211591        6.0245320823  MEMB      68              0.0000000000
      8524        68  DOPC      H10X          -32.8587930045      -16.9289288699        5.2111825125  MEMB      68              0.0000000000
      8525        68  DOPC      C311          -34.3140202790      -15.3166674990        5.6985603096  MEMB      68              0.0000000000
      8526        68  DOPC      H11X          -35.1579246041      -15.3003386570        6.4209733490  MEMB      68              0.0000000000
      8527        68  DOPC      H11Y          -34.6638692385      -15.4077404576        4.6480215778  MEMB      68              0.0000000000
      8528        68  DOPC      C312          -33.5027741832      -14.0040680760        5.8007521835  MEMB      68              0.0000000000
      8529        68  DOPC      H12X          -33.1881550316      -13.8038897096        6.8473007444  MEMB      68              0.0000000000
      8530        68  DOPC      H12Y          -34.2242900585      -13.2314633585        5.4589662132  MEMB      68              0.0000000000
      8531        68  DOPC      C313          -32.1743383675      -14.1259274660        4.9310792970  MEMB      68              0.0000000000
      8532        68  DOPC      H13X          -31.5703095301      -13.1971124646        5.0133756861  MEMB      68              0.0000000000
      8533        68  DOPC      H13Y          -31.6428368902      -15.0001625691        5.3641387061  MEMB      68              0.0000000000
      8534        68  DOPC      C314          -32.5844652817      -14.4100364804        3.4333206288  MEMB      68              0.0000000000
      8535        68  DOPC      H14X          -32.7902341522      -15.4896153495        3.2705628957  MEMB      68              0.0000000000
      8536        68  DOPC      H14Y          -33.4961774576      -13.8046978580        3.2418339956  MEMB      68              0.0000000000
      8537        68  DOPC      C315          -31.3780197197      -13.8693512089        2.5687100684  MEMB      68              0.0000000000
      8538        68  DOPC      H15X          -31.2267028019      -12.7870388467        2.7687703063  MEMB      68              0.0000000000
      8539        68  DOPC      H15Y          -31.6827981934      -13.9524886536        1.5035710601  MEMB      68              0.0000000000
      8540        68  DOPC      C316          -30.1541135857      -14.7417184647        2.6099663273  MEMB      68              0.0000000000
      8541        68  DOPC      H16X          -29.2845988702      -14.2330349018        2.1414508634  MEMB      68              0.0000000000
      8542        68  DOPC      H16Y          -29.9642310655      -14.8357325698        3.7005743791  MEMB      68              0.0000000000
      8543        68  DOPC      C317          -30.4563843848      -16.1359054778        2.0438650066  MEMB      68              0.0000000000
      8544        68  DOPC      H17X          -30.9301536277      -16.7489513685        2.8401293340  MEMB      68              0.0000000000
      8545        68  DOPC      H17Y          -31.1244016902      -15.9775447349        1.1703679985  MEMB      68              0.0000000000
      8546        68  DOPC      C318          -29.1997745723      -16.8560813459        1.5440039957  MEMB      68              0.0000000000
      8547        68  DOPC      H18X          -28.5329305833      -16.9675992372        2.4255969400  MEMB      68              0.0000000000
      8548        68  DOPC      H18Y          -29.5799942420      -17.7805398035        1.0591009512  MEMB      68              0.0000000000
      8549        68  DOPC      H18Z          -28.7331458001      -16.1828380804        0.7934559103  MEMB      68              0.0000000000
      8550        69  DOPE      N              37.6223982000       -7.4499046991       20.4896895052  MEMB      69              0.0000000000
      8551        69  DOPE      HN1            37.3783702060       -6.6295016311       21.0804425782  MEMB      69              0.0000000000
      8552        69  DOPE      HN2            38.1203596182       -8.1872974987       21.0281005097  MEMB      69              0.0000000000
      8553        69  DOPE      HN3            38.1580456263       -7.2061550273       19.6322118854  MEMB      69              0.0000000000
      8554        69  DOPE      C12            36.2879076596       -8.0011670002       19.8945368405  MEMB      69              0.0000000000
      8555        69  DOPE      H12A           35.7535229989       -8.3969336670       20.7845496043  MEMB      69              0.0000000000
      8556        69  DOPE      H12B           36.5060843531       -8.8284520093       19.1857920495  MEMB      69              0.0000000000
      8557        69  DOPE      C11            35.4623398461       -6.9174278253       19.0578114665  MEMB      69              0.0000000000
      8558        69  DOPE      H11A           34.3747836802       -7.1444047969       19.0627154122  MEMB      69              0.0000000000
      8559        69  DOPE      H11B           35.8710372332       -6.9677403233       18.0259412457  MEMB      69              0.0000000000
      8560        69  DOPE      P              35.3253632715       -4.4089467482       18.4937634529  MEMB      69              0.0000000000
      8561        69  DOPE      O13            35.3336795170       -3.1724775745       19.2724184200  MEMB      69              0.0000000000
      8562        69  DOPE      O14            34.2146908422       -4.7278261329       17.6341449845  MEMB      69              0.0000000000
      8563        69  DOPE      O11            36.6339411449       -4.4832384698       17.6340902365  MEMB      69              0.0000000000
      8564        69  DOPE      O12            35.6069699198       -5.6066924883       19.5235450947  MEMB      69              0.0000000000
      8565        69  DOPE      C1             37.8995329259       -4.5998104720       18.2858555729  MEMB      69              0.0000000000
      8566        69  DOPE      HA             38.0032210202       -5.5587236125       18.8372676394  MEMB      69              0.0000000000
      8567        69  DOPE      HB             38.1986313207       -3.6728857434       18.8203383979  MEMB      69              0.0000000000
      8568        69  DOPE      C2             38.9580706646       -4.7758036598       17.1093062931  MEMB      69              0.0000000000
      8569        69  DOPE      HS             39.9275695895       -4.4772664872       17.5623714820  MEMB      69              0.0000000000
      8570        69  DOPE      O21            38.7233630509       -3.9175602188       15.9561361415  MEMB      69              0.0000000000
      8571        69  DOPE      C21            38.8224034374       -2.6859057778       16.1574959290  MEMB      69              0.0000000000
      8572        69  DOPE      O22            39.1036476517       -2.1364978181       17.1946706478  MEMB      69              0.0000000000
      8573        69  DOPE      C22            38.5235419653       -1.8886216277       14.8462617439  MEMB      69              0.0000000000
      8574        69  DOPE      H2R            39.4965544709       -1.7744904824       14.3222944723  MEMB      69              0.0000000000
      8575        69  DOPE      H2S            38.2065088753       -0.8949776653       15.2289925985  MEMB      69              0.0000000000
      8576        69  DOPE      C3             39.0701060384       -6.1450668151       16.5491066311  MEMB      69              0.0000000000
      8577        69  DOPE      HX             39.4405914863       -6.7681847165       17.3910006903  MEMB      69              0.0000000000
      8578        69  DOPE      HY             39.8681713392       -6.1540071336       15.7762334207  MEMB      69              0.0000000000
      8579        69  DOPE      O31            37.8610800791       -6.5823749577       15.9188969360  MEMB      69              0.0000000000
      8580        69  DOPE      C31            37.6028889826       -7.9017709597       16.1216619033  MEMB      69              0.0000000000
      8581        69  DOPE      O32            38.3614329124       -8.6677046102       16.6446039536  MEMB      69              0.0000000000
      8582        69  DOPE      C32            36.2648105477       -8.3256412419       15.4702215037  MEMB      69              0.0000000000
      8583        69  DOPE      H2X            35.7300852622       -9.0370573202       16.1352603531  MEMB      69              0.0000000000
      8584        69  DOPE      H2Y            35.6462921909       -7.4325683798       15.2374623471  MEMB      69              0.0000000000
      8585        69  DOPE      C23            37.5417538325       -2.6054390944       13.9802844431  MEMB      69              0.0000000000
      8586        69  DOPE      H3R            37.0936909243       -1.9319480733       13.2187266943  MEMB      69              0.0000000000
      8587        69  DOPE      H3S            36.7186955697       -2.9202531098       14.6568850354  MEMB      69              0.0000000000
      8588        69  DOPE      C24            38.0639999097       -3.7610387384       13.0866558431  MEMB      69              0.0000000000
      8589        69  DOPE      H4R            38.3753989886       -4.5546546879       13.7990641473  MEMB      69              0.0000000000
      8590        69  DOPE      H4S            38.9860540158       -3.4419111889       12.5553419203  MEMB      69              0.0000000000
      8591        69  DOPE      C25            37.1676957442       -4.3094502470       11.8820141683  MEMB      69              0.0000000000
      8592        69  DOPE      H5R            36.3413592320       -4.9186706548       12.3066782168  MEMB      69              0.0000000000
      8593        69  DOPE      H5S            37.7981767321       -4.9795431589       11.2592860999  MEMB      69              0.0000000000
      8594        69  DOPE      C26            36.7151734098       -3.1977670341       10.9560047491  MEMB      69              0.0000000000
      8595        69  DOPE      H6R            36.8294440186       -3.6450094419        9.9454420045  MEMB      69              0.0000000000
      8596        69  DOPE      H6S            37.3385868031       -2.2919879211       11.1148787608  MEMB      69              0.0000000000
      8597        69  DOPE      C27            35.2544417631       -2.7458422962       11.0221432898  MEMB      69              0.0000000000
      8598        69  DOPE      H7R            35.3141086448       -2.0144009558       11.8562625148  MEMB      69              0.0000000000
      8599        69  DOPE      H7S            34.6515466624       -3.5950831025       11.4089618273  MEMB      69              0.0000000000
      8600        69  DOPE      C28            34.5036047805       -2.1439463729        9.7454148026  MEMB      69              0.0000000000
      8601        69  DOPE      H8R            33.4928528362       -1.7696701573       10.0148931802  MEMB      69              0.0000000000
      8602        69  DOPE      H8S            34.4141050528       -3.0313559396        9.0829834135  MEMB      69              0.0000000000
      8603        69  DOPE      C29            35.2445761218       -1.0422016074        9.1737816294  MEMB      69              0.0000000000
      8604        69  DOPE      H9R            35.1617952818       -0.1104260029        9.7525224864  MEMB      69              0.0000000000
      8605        69  DOPE      C210           36.0153456746       -1.0467951769        8.0388895950  MEMB      69              0.0000000000
      8606        69  DOPE      H10R           36.6236019006       -0.1723711000        7.7642848779  MEMB      69              0.0000000000
      8607        69  DOPE      C211           36.2403346448       -2.2142237054        7.1350446503  MEMB      69              0.0000000000
      8608        69  DOPE      H11R           36.0379287433       -3.1492315689        7.6999459717  MEMB      69              0.0000000000
      8609        69  DOPE      H11S           37.2895402928       -2.2770418082        6.7751249121  MEMB      69              0.0000000000
      8610        69  DOPE      C212           35.1801113558       -2.2523164993        6.0756537542  MEMB      69              0.0000000000
      8611        69  DOPE      H12R           34.1376736987       -2.2277468798        6.4591134002  MEMB      69              0.0000000000
      8612        69  DOPE      H12S           35.2376238563       -3.1617748364        5.4401240779  MEMB      69              0.0000000000
      8613        69  DOPE      C213           35.1602020776       -1.0783834341        5.0310422043  MEMB      69              0.0000000000
      8614        69  DOPE      H13R           34.8884672033       -0.0619077326        5.3877754721  MEMB      69              0.0000000000
      8615        69  DOPE      H13S           34.4758003291       -1.3635535292        4.2036403325  MEMB      69              0.0000000000
      8616        69  DOPE      C214           36.5367918196       -1.0051125002        4.2445832064  MEMB      69              0.0000000000
      8617        69  DOPE      H14R           37.2705164867       -0.7996396714        5.0531317422  MEMB      69              0.0000000000
      8618        69  DOPE      H14S           36.4179915827       -0.1733940691        3.5176362682  MEMB      69              0.0000000000
      8619        69  DOPE      C215           36.8898248728       -2.2694500971        3.4452880338  MEMB      69              0.0000000000
      8620        69  DOPE      H15R           36.0120775281       -2.4899042004        2.8008648501  MEMB      69              0.0000000000
      8621        69  DOPE      H15S           37.0105995173       -3.0577219434        4.2188269886  MEMB      69              0.0000000000
      8622        69  DOPE      C216           38.1075817069       -2.2013885478        2.5623160436  MEMB      69              0.0000000000
      8623        69  DOPE      H16R           38.8859351380       -1.5763760078        3.0500117205  MEMB      69              0.0000000000
      8624        69  DOPE      H16S           37.9233142879       -1.7480948363        1.5648741150  MEMB      69              0.0000000000
      8625        69  DOPE      C217           38.8213564490       -3.5173416435        2.2486361764  MEMB      69              0.0000000000
      8626        69  DOPE      H17R           38.8707967430       -4.2392072268        3.0917194300  MEMB      69              0.0000000000
      8627        69  DOPE      H17S           39.8463341289       -3.3029957971        1.8774259120  MEMB      69              0.0000000000
      8628        69  DOPE      C218           38.1931937686       -4.2067340785        1.0241192850  MEMB      69              0.0000000000
      8629        69  DOPE      H18R           37.9174207355       -3.3537954514        0.3677904733  MEMB      69              0.0000000000
      8630        69  DOPE      H18S           37.4053814705       -4.9426872913        1.2925318092  MEMB      69              0.0000000000
      8631        69  DOPE      H18T           39.0221626268       -4.7686745931        0.5431258813  MEMB      69              0.0000000000
      8632        69  DOPE      C33            36.6089575166       -8.8753985037       14.0403761637  MEMB      69              0.0000000000
      8633        69  DOPE      H3X            35.7520289739       -9.4786268119       13.6714451676  MEMB      69              0.0000000000
      8634        69  DOPE      H3Y            37.3249900446       -9.7119634674       14.1879474126  MEMB      69              0.0000000000
      8635        69  DOPE      C34            37.0960389198       -7.9155373758       12.9757074240  MEMB      69              0.0000000000
      8636        69  DOPE      H4X            36.4569062656       -7.0571227955       12.6774544433  MEMB      69              0.0000000000
      8637        69  DOPE      H4Y            37.9556580491       -7.3699209029       13.4203179169  MEMB      69              0.0000000000
      8638        69  DOPE      C35            37.4239517200       -8.6740124027       11.7207474931  MEMB      69              0.0000000000
      8639        69  DOPE      H5X            36.5605460742       -9.2369021631       11.3060102307  MEMB      69              0.0000000000
      8640        69  DOPE      H5Y            38.1995673921       -9.4579546359       11.8555653777  MEMB      69              0.0000000000
      8641        69  DOPE      C36            37.9737163974       -7.9093402146       10.5307498094  MEMB      69              0.0000000000
      8642        69  DOPE      H6X            38.9055280629       -7.5227114482       10.9961173717  MEMB      69              0.0000000000
      8643        69  DOPE      H6Y            37.2751745543       -7.0627225812       10.3587062866  MEMB      69              0.0000000000
      8644        69  DOPE      C37            38.1183376880       -8.7086823903        9.2967152251  MEMB      69              0.0000000000
      8645        69  DOPE      H7X            38.7370529994       -9.6104382662        9.4925428830  MEMB      69              0.0000000000
      8646        69  DOPE      H7Y            37.1248856235       -8.8210137380        8.8121993038  MEMB      69              0.0000000000
      8647        69  DOPE      C38            38.9161904802       -8.0019517806        8.1778796584  MEMB      69              0.0000000000
      8648        69  DOPE      H8X            39.1848995427       -8.6883634743        7.3466426520  MEMB      69              0.0000000000
      8649        69  DOPE      H8Y            39.9139997643       -7.8636859852        8.6464740307  MEMB      69              0.0000000000
      8650        69  DOPE      C39            38.4122780227       -6.7106484411        7.5868770164  MEMB      69              0.0000000000
      8651        69  DOPE      H9X            38.4758281353       -5.8576604742        8.2785216827  MEMB      69              0.0000000000
      8652        69  DOPE      C310           37.6155843599       -6.5274695650        6.4635718466  MEMB      69              0.0000000000
      8653        69  DOPE      H10X           37.2007682010       -5.5156730023        6.3444282577  MEMB      69              0.0000000000
      8654        69  DOPE      C311           37.1172796809       -7.6563440086        5.6151410189  MEMB      69              0.0000000000
      8655        69  DOPE      H11X           37.5346084258       -7.6641006765        4.5855298811  MEMB      69              0.0000000000
      8656        69  DOPE      H11Y           37.4818204179       -8.6260264243        6.0165711561  MEMB      69              0.0000000000
      8657        69  DOPE      C312           35.5580664259       -7.6936003279        5.6952007012  MEMB      69              0.0000000000
      8658        69  DOPE      H12X           35.2976827569       -7.6719626018        6.7750398102  MEMB      69              0.0000000000
      8659        69  DOPE      H12Y           35.2365604655       -8.6358150096        5.2020616398  MEMB      69              0.0000000000
      8660        69  DOPE      C313           34.8466168076       -6.5589162576        4.8805740692  MEMB      69              0.0000000000
      8661        69  DOPE      H13X           33.7587544125       -6.7756261833        4.9431297606  MEMB      69              0.0000000000
      8662        69  DOPE      H13Y           35.0310858202       -5.5537004316        5.3162735428  MEMB      69              0.0000000000
      8663        69  DOPE      C314           35.2516508713       -6.4923696817        3.3117486832  MEMB      69              0.0000000000
      8664        69  DOPE      H14X           34.8504465093       -7.4126564031        2.8359037069  MEMB      69              0.0000000000
      8665        69  DOPE      H14Y           36.3491240493       -6.4591523103        3.1421309756  MEMB      69              0.0000000000
      8666        69  DOPE      C315           34.8301588466       -5.2628803417        2.4559401188  MEMB      69              0.0000000000
      8667        69  DOPE      H15X           35.0132198734       -5.3004121063        1.3607692647  MEMB      69              0.0000000000
      8668        69  DOPE      H15Y           35.4049513751       -4.3671124064        2.7745853255  MEMB      69              0.0000000000
      8669        69  DOPE      C316           33.2763246600       -5.0953851022        2.5843946534  MEMB      69              0.0000000000
      8670        69  DOPE      H16X           33.0551182520       -4.8748968090        3.6505909938  MEMB      69              0.0000000000
      8671        69  DOPE      H16Y           32.7756137158       -6.0556280148        2.3363152744  MEMB      69              0.0000000000
      8672        69  DOPE      C317           32.8058520612       -3.9077896390        1.8048860504  MEMB      69              0.0000000000
      8673        69  DOPE      H17X           33.7192546433       -3.2764368208        1.7673289193  MEMB      69              0.0000000000
      8674        69  DOPE      H17Y           32.5658414542       -4.2104300924        0.7631931817  MEMB      69              0.0000000000
      8675        69  DOPE      C318           31.4672387112       -3.3147638565        2.3514894530  MEMB      69              0.0000000000
      8676        69  DOPE      H18X           30.6597309991       -4.0540995639        2.1627177301  MEMB      69              0.0000000000
      8677        69  DOPE      H18Y           31.5183093910       -3.2920044808        3.4610819425  MEMB      69              0.0000000000
      8678        69  DOPE      H18Z           31.3527101934       -2.3555107354        1.8028200089  MEMB      69              0.0000000000
      8679        70  DOPE      N              36.8548448372        4.4435653520       21.4574709134  MEMB      70              0.0000000000
      8680        70  DOPE      HN1            35.8794323166        4.1152469979       21.3078796933  MEMB      70              0.0000000000
      8681        70  DOPE      HN2            37.4043676246        3.9449346407       22.1861629956  MEMB      70              0.0000000000
      8682        70  DOPE      HN3            36.8168729677        5.4695516219       21.6233332202  MEMB      70              0.0000000000
      8683        70  DOPE      C12            37.4477240140        4.1857160212       20.0733689268  MEMB      70              0.0000000000
      8684        70  DOPE      H12A           38.0630475870        3.2657490449       20.1701093652  MEMB      70              0.0000000000
      8685        70  DOPE      H12B           38.0902270327        5.0638919413       19.8490525734  MEMB      70              0.0000000000
      8686        70  DOPE      C11            36.3563583990        4.2828378737       18.9333050629  MEMB      70              0.0000000000
      8687        70  DOPE      H11A           36.8710030681        4.3820244193       17.9537011785  MEMB      70              0.0000000000
      8688        70  DOPE      H11B           35.7540204867        5.2023306128       19.0946841359  MEMB      70              0.0000000000
      8689        70  DOPE      P              35.8714917014        1.8873976096       18.3343722856  MEMB      70              0.0000000000
      8690        70  DOPE      O13            35.6447549588        0.7060409700       19.2573866523  MEMB      70              0.0000000000
      8691        70  DOPE      O14            37.2087579745        2.0244110330       17.7110480139  MEMB      70              0.0000000000
      8692        70  DOPE      O11            34.7753634695        1.7675511105       17.1451663855  MEMB      70              0.0000000000
      8693        70  DOPE      O12            35.4591246433        3.1769545133       19.0878817575  MEMB      70              0.0000000000
      8694        70  DOPE      C1             33.4666381570        1.4523753716       17.5569495394  MEMB      70              0.0000000000
      8695        70  DOPE      HA             33.1157692042        2.3049286701       18.1769212010  MEMB      70              0.0000000000
      8696        70  DOPE      HB             33.4461813323        0.4871020275       18.1066312485  MEMB      70              0.0000000000
      8697        70  DOPE      C2             32.5062707956        1.4866256526       16.4140491377  MEMB      70              0.0000000000
      8698        70  DOPE      HS             31.6858933558        0.7482459003       16.5409247751  MEMB      70              0.0000000000
      8699        70  DOPE      O21            33.2029087445        1.2059872543       15.1875844037  MEMB      70              0.0000000000
      8700        70  DOPE      C21            33.2824271572       -0.1264782869       14.9617352386  MEMB      70              0.0000000000
      8701        70  DOPE      O22            32.9985605277       -1.0060561313       15.7920979369  MEMB      70              0.0000000000
      8702        70  DOPE      C22            33.6510613618       -0.3982848497       13.4687582666  MEMB      70              0.0000000000
      8703        70  DOPE      H2R            33.2750232408        0.4687444270       12.8846549913  MEMB      70              0.0000000000
      8704        70  DOPE      H2S            33.3127462555       -1.4092715378       13.1560776957  MEMB      70              0.0000000000
      8705        70  DOPE      C3             31.8167095138        2.8463733420       16.2605490429  MEMB      70              0.0000000000
      8706        70  DOPE      HX             31.2378758157        3.1745277237       17.1502608001  MEMB      70              0.0000000000
      8707        70  DOPE      HY             31.0768759343        2.9309732522       15.4360432077  MEMB      70              0.0000000000
      8708        70  DOPE      O31            32.8360090910        3.9074354327       16.0096806259  MEMB      70              0.0000000000
      8709        70  DOPE      C31            32.9155430853        4.3745801418       14.7468599534  MEMB      70              0.0000000000
      8710        70  DOPE      O32            32.2054577178        4.0818371248       13.7843363521  MEMB      70              0.0000000000
      8711        70  DOPE      C32            34.2753744774        5.1808324149       14.6437862823  MEMB      70              0.0000000000
      8712        70  DOPE      H2X            34.2188757036        6.1765647907       15.1333228665  MEMB      70              0.0000000000
      8713        70  DOPE      H2Y            35.0671668918        4.6560271793       15.2199506984  MEMB      70              0.0000000000
      8714        70  DOPE      C23            35.2014023576       -0.4210974146       13.4740292377  MEMB      70              0.0000000000
      8715        70  DOPE      H3R            35.4894367825       -1.1054124052       12.6475491089  MEMB      70              0.0000000000
      8716        70  DOPE      H3S            35.5620117595       -0.8867184651       14.4160904157  MEMB      70              0.0000000000
      8717        70  DOPE      C24            35.9225550064        0.8810491421       13.2338210477  MEMB      70              0.0000000000
      8718        70  DOPE      H4R            36.0082775591        1.4530786556       14.1823752232  MEMB      70              0.0000000000
      8719        70  DOPE      H4S            35.3051206961        1.5334364552       12.5799959777  MEMB      70              0.0000000000
      8720        70  DOPE      C25            37.3981317236        0.8535471856       12.7463871426  MEMB      70              0.0000000000
      8721        70  DOPE      H5R            37.5989296774        0.2643871107       11.8261199383  MEMB      70              0.0000000000
      8722        70  DOPE      H5S            37.9605220367        0.3366696757       13.5531554863  MEMB      70              0.0000000000
      8723        70  DOPE      C26            38.0650312428        2.2428116523       12.6063401534  MEMB      70              0.0000000000
      8724        70  DOPE      H6R            39.1562952812        2.1007028880       12.4537981250  MEMB      70              0.0000000000
      8725        70  DOPE      H6S            37.9845026115        2.7356044643       13.5988076297  MEMB      70              0.0000000000
      8726        70  DOPE      C27            37.3757548357        3.0938637650       11.5079552712  MEMB      70              0.0000000000
      8727        70  DOPE      H7R            36.3127097545        3.3536191614       11.6997448296  MEMB      70              0.0000000000
      8728        70  DOPE      H7S            37.4356882857        2.3195708515       10.7134745482  MEMB      70              0.0000000000
      8729        70  DOPE      C28            38.1719332066        4.2690364910       10.9918964578  MEMB      70              0.0000000000
      8730        70  DOPE      H8R            38.1673794402        5.0085705867       11.8209858469  MEMB      70              0.0000000000
      8731        70  DOPE      H8S            37.6032588603        4.7649992412       10.1764509808  MEMB      70              0.0000000000
      8732        70  DOPE      C29            39.5224863548        3.9392774217       10.6629732023  MEMB      70              0.0000000000
      8733        70  DOPE      H9R            40.2881182962        4.1479494088       11.4247243019  MEMB      70              0.0000000000
      8734        70  DOPE      C210           39.9499760079        3.2416501640        9.5532396937  MEMB      70              0.0000000000
      8735        70  DOPE      H10R           41.0422740403        3.1248598989        9.4962689837  MEMB      70              0.0000000000
      8736        70  DOPE      C211           39.1446887262        2.7640210244        8.4028285040  MEMB      70              0.0000000000
      8737        70  DOPE      H11R           38.2059412630        3.3523930115        8.3198072280  MEMB      70              0.0000000000
      8738        70  DOPE      H11S           38.9357014579        1.6867948228        8.5766925993  MEMB      70              0.0000000000
      8739        70  DOPE      C212           39.8543939906        2.8664901007        7.0137995519  MEMB      70              0.0000000000
      8740        70  DOPE      H12R           39.2458374571        2.2867179840        6.2872705853  MEMB      70              0.0000000000
      8741        70  DOPE      H12S           40.8768367276        2.4330678024        6.9809759133  MEMB      70              0.0000000000
      8742        70  DOPE      C213           39.9485143169        4.3045399781        6.4736587511  MEMB      70              0.0000000000
      8743        70  DOPE      H13R           40.6912726393        4.1572410424        5.6606804115  MEMB      70              0.0000000000
      8744        70  DOPE      H13S           40.3321840688        4.9567268043        7.2871514416  MEMB      70              0.0000000000
      8745        70  DOPE      C214           38.6554585630        4.9561240188        5.9170447889  MEMB      70              0.0000000000
      8746        70  DOPE      H14R           38.8423146040        6.0222039507        5.6662874698  MEMB      70              0.0000000000
      8747        70  DOPE      H14S           37.9220464423        4.7870861006        6.7342680830  MEMB      70              0.0000000000
      8748        70  DOPE      C215           38.1503962199        4.3845432758        4.5795302154  MEMB      70              0.0000000000
      8749        70  DOPE      H15R           37.8016929497        3.4104216010        4.9842692381  MEMB      70              0.0000000000
      8750        70  DOPE      H15S           38.9972120641        4.1647933667        3.8947427014  MEMB      70              0.0000000000
      8751        70  DOPE      C216           37.0351672567        5.2126980122        3.9785875804  MEMB      70              0.0000000000
      8752        70  DOPE      H16R           37.3382663451        6.2222432941        3.6274883765  MEMB      70              0.0000000000
      8753        70  DOPE      H16S           36.2969497923        5.3922253739        4.7892201248  MEMB      70              0.0000000000
      8754        70  DOPE      C217           36.1396431032        4.4364262076        3.0524670835  MEMB      70              0.0000000000
      8755        70  DOPE      H17R           35.6924405590        3.6468443276        3.6934748715  MEMB      70              0.0000000000
      8756        70  DOPE      H17S           36.7738159497        3.9633059497        2.2725289268  MEMB      70              0.0000000000
      8757        70  DOPE      C218           34.9081490005        5.1405398284        2.3810201979  MEMB      70              0.0000000000
      8758        70  DOPE      H18R           34.4673025336        5.8154417631        3.1455347938  MEMB      70              0.0000000000
      8759        70  DOPE      H18S           34.1941291221        4.3365467444        2.1015715577  MEMB      70              0.0000000000
      8760        70  DOPE      H18T           35.1225481326        5.7353339832        1.4674707860  MEMB      70              0.0000000000
      8761        70  DOPE      C33            34.6537961488        5.4679270556       13.1642474637  MEMB      70              0.0000000000
      8762        70  DOPE      H3X            34.4102834116        4.5294812474       12.6217141779  MEMB      70              0.0000000000
      8763        70  DOPE      H3Y            35.7238360293        5.7591901026       13.0971547228  MEMB      70              0.0000000000
      8764        70  DOPE      C34            33.9153615469        6.6914865513       12.5771156400  MEMB      70              0.0000000000
      8765        70  DOPE      H4X            32.8552242268        6.4449363862       12.3543095833  MEMB      70              0.0000000000
      8766        70  DOPE      H4Y            33.8532840131        7.5003152225       13.3362355201  MEMB      70              0.0000000000
      8767        70  DOPE      C35            34.5655835282        7.2479352244       11.2948447914  MEMB      70              0.0000000000
      8768        70  DOPE      H5X            35.6558523882        7.1485442210       11.4839373311  MEMB      70              0.0000000000
      8769        70  DOPE      H5Y            34.3537816002        8.3107454217       11.0501079473  MEMB      70              0.0000000000
      8770        70  DOPE      C36            34.2031212555        6.4980171778        9.9843077243  MEMB      70              0.0000000000
      8771        70  DOPE      H6X            33.1422450046        6.6108987809        9.6742750002  MEMB      70              0.0000000000
      8772        70  DOPE      H6Y            34.3959884741        5.4386765162       10.2580249249  MEMB      70              0.0000000000
      8773        70  DOPE      C37            35.0064251233        6.9536051161        8.7158225375  MEMB      70              0.0000000000
      8774        70  DOPE      H7X            34.8064822861        8.0257038090        8.5038137881  MEMB      70              0.0000000000
      8775        70  DOPE      H7Y            36.0602333193        6.9095804917        9.0649229489  MEMB      70              0.0000000000
      8776        70  DOPE      C38            34.7842104233        6.0246103142        7.4780479376  MEMB      70              0.0000000000
      8777        70  DOPE      H8X            35.0625256320        4.9968770954        7.7952635336  MEMB      70              0.0000000000
      8778        70  DOPE      H8Y            35.5057514915        6.2727404631        6.6705009211  MEMB      70              0.0000000000
      8779        70  DOPE      C39            33.3891019946        6.2939089999        6.9864954601  MEMB      70              0.0000000000
      8780        70  DOPE      H9X            33.1992471969        7.2863116207        6.5516477287  MEMB      70              0.0000000000
      8781        70  DOPE      C310           32.3153226039        5.4705624149        7.0803228019  MEMB      70              0.0000000000
      8782        70  DOPE      H10X           31.4295226937        5.9151002648        6.6030970238  MEMB      70              0.0000000000
      8783        70  DOPE      C311           32.1465560857        4.0835886515        7.6257561543  MEMB      70              0.0000000000
      8784        70  DOPE      H11X           33.0326283150        3.6812910840        8.1618108448  MEMB      70              0.0000000000
      8785        70  DOPE      H11Y           31.3714489172        4.2153578721        8.4107191339  MEMB      70              0.0000000000
      8786        70  DOPE      C312           31.6339958273        3.1359815248        6.5945590695  MEMB      70              0.0000000000
      8787        70  DOPE      H12X           30.6808425950        3.5156389388        6.1683191071  MEMB      70              0.0000000000
      8788        70  DOPE      H12Y           31.3064773701        2.1480288644        6.9831492366  MEMB      70              0.0000000000
      8789        70  DOPE      C313           32.6270210156        2.7181769838        5.5950747415  MEMB      70              0.0000000000
      8790        70  DOPE      H13X           32.1105554211        2.0333778213        4.8889341975  MEMB      70              0.0000000000
      8791        70  DOPE      H13Y           33.0622510645        3.5635811860        5.0204546322  MEMB      70              0.0000000000
      8792        70  DOPE      C314           33.9286238679        2.0580577369        6.2152276359  MEMB      70              0.0000000000
      8793        70  DOPE      H14X           33.8885232691        1.8653555228        7.3086532307  MEMB      70              0.0000000000
      8794        70  DOPE      H14Y           34.8612067867        2.6188403239        5.9913236794  MEMB      70              0.0000000000
      8795        70  DOPE      C315           34.2602902894        0.7699742913        5.4550002464  MEMB      70              0.0000000000
      8796        70  DOPE      H15X           33.3540042434        0.1273496784        5.4550894956  MEMB      70              0.0000000000
      8797        70  DOPE      H15Y           35.0485341911        0.2938185760        6.0765054780  MEMB      70              0.0000000000
      8798        70  DOPE      C316           34.7351747905        1.1013983042        4.0328479083  MEMB      70              0.0000000000
      8799        70  DOPE      H16X           35.7067160484        1.6391146636        3.9969361485  MEMB      70              0.0000000000
      8800        70  DOPE      H16Y           34.0258026472        1.7040933630        3.4263241758  MEMB      70              0.0000000000
      8801        70  DOPE      C317           34.8417914153       -0.1882318189        3.3696457397  MEMB      70              0.0000000000
      8802        70  DOPE      H17X           35.3727919372       -0.8000097127        4.1299661096  MEMB      70              0.0000000000
      8803        70  DOPE      H17Y           33.8760623187       -0.7033387922        3.1789806206  MEMB      70              0.0000000000
      8804        70  DOPE      C318           35.6925007607       -0.3204312404        2.0494211948  MEMB      70              0.0000000000
      8805        70  DOPE      H18X           35.2405625843        0.2848919499        1.2347698366  MEMB      70              0.0000000000
      8806        70  DOPE      H18Y           36.7703219682       -0.0642769034        2.1331317186  MEMB      70              0.0000000000
      8807        70  DOPE      H18Z           35.8050738413       -1.3509663750        1.6498640100  MEMB      70              0.0000000000
      8808        71  CHL1      C3             15.5191319827       32.9819768771       17.3031000000  MEMB      71              0.0000000000
      8809        71  CHL1      H3             16.5176776680       33.4039717897       17.0598700000  MEMB      71              0.0000000000
      8810        71  CHL1      O3             15.3654298173       32.9074665229       18.6969000000  MEMB      71              0.0000000000
      8811        71  CHL1      H3'            14.6256349111       32.2984197476       18.7549800000  MEMB      71              0.0000000000
      8812        71  CHL1      C4             14.4077647887       33.8470142512       16.7068200000  MEMB      71              0.0000000000
      8813        71  CHL1      H4A            13.4170398478       33.3865122359       16.9086200000  MEMB      71              0.0000000000
      8814        71  CHL1      H4B            14.5695182933       34.8056390130       17.2445900000  MEMB      71              0.0000000000
      8815        71  CHL1      C5             14.5864256760       33.9393836506       15.2084600000  MEMB      71              0.0000000000
      8816        71  CHL1      C6             14.6458687361       35.1439631428       14.5719900000  MEMB      71              0.0000000000
      8817        71  CHL1      H6             14.6046520785       36.0809955329       15.1466800000  MEMB      71              0.0000000000
      8818        71  CHL1      C7             14.8733975945       35.2500042358       13.1011500000  MEMB      71              0.0000000000
      8819        71  CHL1      H7A            14.3057594112       36.1127563236       12.6915500000  MEMB      71              0.0000000000
      8820        71  CHL1      H7B            15.9348211695       35.4656614954       12.8538000000  MEMB      71              0.0000000000
      8821        71  CHL1      C8             14.5527886428       33.9394210244       12.3466500000  MEMB      71              0.0000000000
      8822        71  CHL1      H8             13.4718039478       33.7150399477       12.4709300000  MEMB      71              0.0000000000
      8823        71  CHL1      C14            14.9828967051       34.0476752179       10.9158400000  MEMB      71              0.0000000000
      8824        71  CHL1      H14            16.0898483664       34.1284961846       10.9652900000  MEMB      71              0.0000000000
      8825        71  CHL1      C15            14.5540553308       35.2447404319       10.0140700000  MEMB      71              0.0000000000
      8826        71  CHL1      H15A           13.4822269962       35.4678111176       10.2031600000  MEMB      71              0.0000000000
      8827        71  CHL1      H15B           15.1034787668       36.1967551005       10.1757000000  MEMB      71              0.0000000000
      8828        71  CHL1      C16            14.8062111798       34.7839897337        8.5508400000  MEMB      71              0.0000000000
      8829        71  CHL1      H16A           13.8910908176       34.8817314447        7.9285000000  MEMB      71              0.0000000000
      8830        71  CHL1      H16B           15.6472247240       35.3570002741        8.1051100000  MEMB      71              0.0000000000
      8831        71  CHL1      C17            15.1108690390       33.3072578403        8.6997500000  MEMB      71              0.0000000000
      8832        71  CHL1      H17            16.2131453896       33.1872036548        8.6297900000  MEMB      71              0.0000000000
      8833        71  CHL1      C13            14.6445468780       32.8509465020       10.1066200000  MEMB      71              0.0000000000
      8834        71  CHL1      C18            13.1799943821       32.5417693533       10.1288300000  MEMB      71              0.0000000000
      8835        71  CHL1      H18A           12.6258749691       33.4817793323        9.9199200000  MEMB      71              0.0000000000
      8836        71  CHL1      H18B           12.9203656532       31.8834435749        9.2723700000  MEMB      71              0.0000000000
      8837        71  CHL1      H18C           12.7718291758       32.0435307754       11.0340800000  MEMB      71              0.0000000000
      8838        71  CHL1      C12            15.4465632353       31.6124725085       10.7160800000  MEMB      71              0.0000000000
      8839        71  CHL1      H12A           15.0714534940       30.6617967608       10.2803700000  MEMB      71              0.0000000000
      8840        71  CHL1      H12B           16.5306018048       31.6782260957       10.4818800000  MEMB      71              0.0000000000
      8841        71  CHL1      C11            15.2391835614       31.3951367145       12.2750800000  MEMB      71              0.0000000000
      8842        71  CHL1      H11A           14.2341244598       30.9278749331       12.3514400000  MEMB      71              0.0000000000
      8843        71  CHL1      H11B           16.1176579810       30.7624278592       12.5246500000  MEMB      71              0.0000000000
      8844        71  CHL1      C9             15.2832455928       32.7134006338       13.0500600000  MEMB      71              0.0000000000
      8845        71  CHL1      H9             16.3719663495       32.9315972582       13.0126700000  MEMB      71              0.0000000000
      8846        71  CHL1      C10            14.7409131388       32.5149152947       14.4582800000  MEMB      71              0.0000000000
      8847        71  CHL1      C19            13.3565178909       31.8465222303       14.3910000000  MEMB      71              0.0000000000
      8848        71  CHL1      H19A           12.6996642259       32.0964417017       13.5305300000  MEMB      71              0.0000000000
      8849        71  CHL1      H19B           13.4960084046       30.7456148445       14.3374000000  MEMB      71              0.0000000000
      8850        71  CHL1      H19C           12.7775455438       32.0773715857       15.3106800000  MEMB      71              0.0000000000
      8851        71  CHL1      C1             15.6780237399       31.5690271796       15.2214400000  MEMB      71              0.0000000000
      8852        71  CHL1      H1A            15.4528069950       30.5974945424       14.7318300000  MEMB      71              0.0000000000
      8853        71  CHL1      H1B            16.7198242268       31.9118651410       15.0441700000  MEMB      71              0.0000000000
      8854        71  CHL1      C2             15.4732348966       31.5434740000       16.7265700000  MEMB      71              0.0000000000
      8855        71  CHL1      H2A            16.2349405077       30.8715668304       17.1767300000  MEMB      71              0.0000000000
      8856        71  CHL1      H2B            14.4519262634       31.1967660344       16.9931200000  MEMB      71              0.0000000000
      8857        71  CHL1      C20            14.6018436428       32.5910311385        7.3661900000  MEMB      71              0.0000000000
      8858        71  CHL1      H20            13.4942758585       32.5168765720        7.3202100000  MEMB      71              0.0000000000
      8859        71  CHL1      C21            15.0319325106       31.1495030769        7.3268600000  MEMB      71              0.0000000000
      8860        71  CHL1      H21A           15.0328329959       30.6291060476        6.3452800000  MEMB      71              0.0000000000
      8861        71  CHL1      H21B           14.4312591586       30.6168182171        8.0948200000  MEMB      71              0.0000000000
      8862        71  CHL1      H21C           16.0734393622       31.2090836366        7.7090300000  MEMB      71              0.0000000000
      8863        71  CHL1      C22            15.0222733074       33.3575237884        6.1296000000  MEMB      71              0.0000000000
      8864        71  CHL1      H22A           14.7824851312       34.4413897132        6.0842200000  MEMB      71              0.0000000000
      8865        71  CHL1      H22B           16.1241826148       33.2591199165        6.0273800000  MEMB      71              0.0000000000
      8866        71  CHL1      C23            14.5892596661       32.8653286680        4.6606900000  MEMB      71              0.0000000000
      8867        71  CHL1      H23A           15.1836669122       33.4490221223        3.9256400000  MEMB      71              0.0000000000
      8868        71  CHL1      H23B           14.9843678967       31.8279371448        4.6157300000  MEMB      71              0.0000000000
      8869        71  CHL1      C24            13.1116931795       33.0046779601        4.3715700000  MEMB      71              0.0000000000
      8870        71  CHL1      H24A           12.5809199022       32.3503688920        5.0957800000  MEMB      71              0.0000000000
      8871        71  CHL1      H24B           12.6432090239       34.0018213304        4.5149600000  MEMB      71              0.0000000000
      8872        71  CHL1      C25            12.6780559303       32.5812897465        2.9613100000  MEMB      71              0.0000000000
      8873        71  CHL1      H25            11.5801969039       32.4192745374        3.0141200000  MEMB      71              0.0000000000
      8874        71  CHL1      C26            12.8216878883       33.7043779000        1.9684400000  MEMB      71              0.0000000000
      8875        71  CHL1      H26A           12.4415652060       34.6277588135        2.4554700000  MEMB      71              0.0000000000
      8876        71  CHL1      H26B           13.8920980061       33.8328441478        1.7000400000  MEMB      71              0.0000000000
      8877        71  CHL1      H26C           12.2693555623       33.4193740458        1.0475600000  MEMB      71              0.0000000000
      8878        71  CHL1      C27            13.2944612923       31.3286878721        2.3772200000  MEMB      71              0.0000000000
      8879        71  CHL1      H27A           12.8882484366       31.1006937767        1.3685900000  MEMB      71              0.0000000000
      8880        71  CHL1      H27B           14.3844065260       31.4068260189        2.1765900000  MEMB      71              0.0000000000
      8881        71  CHL1      H27C           13.0433520492       30.4559482582        3.0172100000  MEMB      71              0.0000000000
      8882        72  DOPE      N              24.2995253195       30.9586574839       20.0255854047  MEMB      72              0.0000000000
      8883        72  DOPE      HN1            25.0399360579       31.4963987781       20.5197783725  MEMB      72              0.0000000000
      8884        72  DOPE      HN2            24.6625140683       30.4360609036       19.2029482948  MEMB      72              0.0000000000
      8885        72  DOPE      HN3            23.6406821302       31.6293922613       19.5810176666  MEMB      72              0.0000000000
      8886        72  DOPE      C12            23.4817426637       30.0823459975       20.9756547953  MEMB      72              0.0000000000
      8887        72  DOPE      H12A           22.4986217724       30.5010778523       21.2797236984  MEMB      72              0.0000000000
      8888        72  DOPE      H12B           24.1475048936       29.9428074661       21.8540686637  MEMB      72              0.0000000000
      8889        72  DOPE      C11            23.1474430858       28.7255857243       20.3060056665  MEMB      72              0.0000000000
      8890        72  DOPE      H11A           22.4549724317       28.1420647391       20.9496737360  MEMB      72              0.0000000000
      8891        72  DOPE      H11B           24.0740339300       28.1864645387       20.0142886346  MEMB      72              0.0000000000
      8892        72  DOPE      P              21.9315976221       27.8403124176       18.1103406242  MEMB      72              0.0000000000
      8893        72  DOPE      O13            21.6028537993       26.6783049112       18.8577711427  MEMB      72              0.0000000000
      8894        72  DOPE      O14            22.9563976108       27.7097210228       17.0979579360  MEMB      72              0.0000000000
      8895        72  DOPE      O11            20.5983477580       28.3735385847       17.4932177297  MEMB      72              0.0000000000
      8896        72  DOPE      O12            22.4270969050       29.0343018360       19.1334666996  MEMB      72              0.0000000000
      8897        72  DOPE      C1             19.4619856218       28.8053521672       18.2970890976  MEMB      72              0.0000000000
      8898        72  DOPE      HA             19.8034769336       29.3164773038       19.2225380631  MEMB      72              0.0000000000
      8899        72  DOPE      HB             18.9076168248       27.8753276984       18.5461884885  MEMB      72              0.0000000000
      8900        72  DOPE      C2             18.6374227928       29.7978442225       17.4243420362  MEMB      72              0.0000000000
      8901        72  DOPE      HS             17.6167501339       29.8264929084       17.8622097395  MEMB      72              0.0000000000
      8902        72  DOPE      O21            18.5537119267       29.3046230663       16.0906895045  MEMB      72              0.0000000000
      8903        72  DOPE      C21            17.7934546229       28.1896989141       15.8257700970  MEMB      72              0.0000000000
      8904        72  DOPE      O22            16.9551633227       27.7366430645       16.6116966526  MEMB      72              0.0000000000
      8905        72  DOPE      C22            18.1585492970       27.7157559404       14.3721390400  MEMB      72              0.0000000000
      8906        72  DOPE      H2R            18.0396595971       26.6147737131       14.4617181810  MEMB      72              0.0000000000
      8907        72  DOPE      H2S            19.2009033690       28.0072493221       14.1214389879  MEMB      72              0.0000000000
      8908        72  DOPE      C3             19.1328699719       31.2611608208       17.3612105999  MEMB      72              0.0000000000
      8909        72  DOPE      HX             18.9638254066       31.7199426068       18.3588398974  MEMB      72              0.0000000000
      8910        72  DOPE      HY             18.4143978053       31.7574639309       16.6743322882  MEMB      72              0.0000000000
      8911        72  DOPE      O31            20.5012815709       31.3828738369       16.8261463172  MEMB      72              0.0000000000
      8912        72  DOPE      C31            21.1038292648       32.6010418602       16.7967555766  MEMB      72              0.0000000000
      8913        72  DOPE      O32            20.5124046552       33.6442968092       17.0619002103  MEMB      72              0.0000000000
      8914        72  DOPE      C32            22.5634909852       32.5478018893       16.3629947772  MEMB      72              0.0000000000
      8915        72  DOPE      H2X            22.7933749483       33.6250734763       16.2182186043  MEMB      72              0.0000000000
      8916        72  DOPE      H2Y            23.2879203148       32.1433158955       17.1018549121  MEMB      72              0.0000000000
      8917        72  DOPE      C23            17.1316525524       28.1278196766       13.2967219117  MEMB      72              0.0000000000
      8918        72  DOPE      H3R            16.1597595323       27.7599482459       13.6896793421  MEMB      72              0.0000000000
      8919        72  DOPE      H3S            17.4624430191       27.5677634801       12.3960357644  MEMB      72              0.0000000000
      8920        72  DOPE      C24            16.9227729368       29.5911720221       12.9797702917  MEMB      72              0.0000000000
      8921        72  DOPE      H4R            16.6591238834       30.0786820493       13.9426536236  MEMB      72              0.0000000000
      8922        72  DOPE      H4S            16.0576147262       29.6300771312       12.2838476871  MEMB      72              0.0000000000
      8923        72  DOPE      C25            18.2026937267       30.1599121907       12.2955993546  MEMB      72              0.0000000000
      8924        72  DOPE      H5R            18.6430411079       29.3356805651       11.6947190433  MEMB      72              0.0000000000
      8925        72  DOPE      H5S            18.7073205848       30.3770185229       13.2612793197  MEMB      72              0.0000000000
      8926        72  DOPE      C26            18.1059822868       31.3724832371       11.3902327318  MEMB      72              0.0000000000
      8927        72  DOPE      H6R            17.1750123242       31.9287149486       11.6315259335  MEMB      72              0.0000000000
      8928        72  DOPE      H6S            18.0990806976       30.9860084247       10.3486419483  MEMB      72              0.0000000000
      8929        72  DOPE      C27            19.3462239582       32.2932480634       11.5103156180  MEMB      72              0.0000000000
      8930        72  DOPE      H7R            20.2567105795       31.6722024768       11.6504496527  MEMB      72              0.0000000000
      8931        72  DOPE      H7S            19.2050531970       32.9037080982       12.4277747316  MEMB      72              0.0000000000
      8932        72  DOPE      C28            19.4546172563       33.2812497471       10.2703451242  MEMB      72              0.0000000000
      8933        72  DOPE      H8R            19.7073466201       32.6248269465        9.4103693611  MEMB      72              0.0000000000
      8934        72  DOPE      H8S            20.3372374202       33.9403803655       10.4147372297  MEMB      72              0.0000000000
      8935        72  DOPE      C29            18.2369592556       34.1483213604       10.1057827696  MEMB      72              0.0000000000
      8936        72  DOPE      H9R            17.8916458912       34.7384536931       10.9674686322  MEMB      72              0.0000000000
      8937        72  DOPE      C210           17.3888664048       34.0349489856        9.0280622956  MEMB      72              0.0000000000
      8938        72  DOPE      H10R           16.5815621089       34.7818020167        9.0063749050  MEMB      72              0.0000000000
      8939        72  DOPE      C211           17.4532031315       33.1981743887        7.7837150040  MEMB      72              0.0000000000
      8940        72  DOPE      H11R           16.4461598052       32.7498080603        7.6453218918  MEMB      72              0.0000000000
      8941        72  DOPE      H11S           18.1695923368       32.3713968303        7.9774840820  MEMB      72              0.0000000000
      8942        72  DOPE      C212           17.8814340281       33.9165599721        6.5035845552  MEMB      72              0.0000000000
      8943        72  DOPE      H12R           18.9901897155       33.8675963992        6.5544174482  MEMB      72              0.0000000000
      8944        72  DOPE      H12S           17.5404628108       34.9685696907        6.3971179645  MEMB      72              0.0000000000
      8945        72  DOPE      C213           17.6130253091       33.2473922643        5.1654099042  MEMB      72              0.0000000000
      8946        72  DOPE      H13R           18.0924528870       33.7867034380        4.3206534069  MEMB      72              0.0000000000
      8947        72  DOPE      H13S           16.5159929017       33.1658818555        5.0098549960  MEMB      72              0.0000000000
      8948        72  DOPE      C214           18.2405461140       31.7567799766        5.2493976383  MEMB      72              0.0000000000
      8949        72  DOPE      H14R           17.6837414168       31.1746456206        6.0145181906  MEMB      72              0.0000000000
      8950        72  DOPE      H14S           19.2813762799       31.8494338411        5.6267695283  MEMB      72              0.0000000000
      8951        72  DOPE      C215           18.3598417161       31.0462580994        3.8691935263  MEMB      72              0.0000000000
      8952        72  DOPE      H15R           17.5116616813       31.3478431471        3.2180719177  MEMB      72              0.0000000000
      8953        72  DOPE      H15S           18.5132880267       29.9479046074        3.9354858094  MEMB      72              0.0000000000
      8954        72  DOPE      C216           19.6695248797       31.5898648811        3.2238803229  MEMB      72              0.0000000000
      8955        72  DOPE      H16R           20.4627551833       31.1297867321        3.8511245387  MEMB      72              0.0000000000
      8956        72  DOPE      H16S           19.8395773320       32.6842268650        3.3120550981  MEMB      72              0.0000000000
      8957        72  DOPE      C217           19.7457698846       31.2017239790        1.7755502351  MEMB      72              0.0000000000
      8958        72  DOPE      H17R           19.5158897224       30.1151487502        1.7467354999  MEMB      72              0.0000000000
      8959        72  DOPE      H17S           20.8036726254       31.2461254937        1.4391112317  MEMB      72              0.0000000000
      8960        72  DOPE      C218           18.7989088553       31.9456688274        0.7335758176  MEMB      72              0.0000000000
      8961        72  DOPE      H18R           18.6996040133       33.0195894340        1.0003229852  MEMB      72              0.0000000000
      8962        72  DOPE      H18S           17.8259713612       31.4328347836        0.8907858803  MEMB      72              0.0000000000
      8963        72  DOPE      H18T           19.0941813859       31.8377141617       -0.3320133376  MEMB      72              0.0000000000
      8964        72  DOPE      C33            22.8167798065       31.8654804734       14.9974613756  MEMB      72              0.0000000000
      8965        72  DOPE      H3X            23.7908321899       32.3084713481       14.6986266702  MEMB      72              0.0000000000
      8966        72  DOPE      H3Y            22.1566080583       32.1568205042       14.1527039344  MEMB      72              0.0000000000
      8967        72  DOPE      C34            22.9240671954       30.3516656438       15.1261045277  MEMB      72              0.0000000000
      8968        72  DOPE      H4X            23.6054291113       29.9951534322       15.9279560542  MEMB      72              0.0000000000
      8969        72  DOPE      H4Y            21.9341739291       29.8625828213       15.2495159344  MEMB      72              0.0000000000
      8970        72  DOPE      C35            23.5584607903       29.5554889706       13.9908054197  MEMB      72              0.0000000000
      8971        72  DOPE      H5X            23.8850897668       28.5275367711       14.2571672244  MEMB      72              0.0000000000
      8972        72  DOPE      H5Y            24.4599203519       30.0627323816       13.5853476111  MEMB      72              0.0000000000
      8973        72  DOPE      C36            22.5571264015       29.3293650882       12.8569635529  MEMB      72              0.0000000000
      8974        72  DOPE      H6X            22.4974218943       30.2292470204       12.2081429480  MEMB      72              0.0000000000
      8975        72  DOPE      H6Y            21.5012507816       29.2487583961       13.1930442830  MEMB      72              0.0000000000
      8976        72  DOPE      C37            22.8550276277       27.9971288874       11.9872265618  MEMB      72              0.0000000000
      8977        72  DOPE      H7X            23.8877564513       27.8986954550       11.5896044982  MEMB      72              0.0000000000
      8978        72  DOPE      H7Y            22.8081039570       27.0887204067       12.6251243061  MEMB      72              0.0000000000
      8979        72  DOPE      C38            21.8664833761       27.8325644804       10.7666790201  MEMB      72              0.0000000000
      8980        72  DOPE      H8X            20.9695116946       27.4129128033       11.2703210943  MEMB      72              0.0000000000
      8981        72  DOPE      H8Y            22.3716827173       27.0675417829       10.1391163588  MEMB      72              0.0000000000
      8982        72  DOPE      C39            21.4100659570       29.0278902496       10.0066582338  MEMB      72              0.0000000000
      8983        72  DOPE      H9X            21.0135555739       29.8724100401       10.5893806367  MEMB      72              0.0000000000
      8984        72  DOPE      C310           21.2676621165       29.1198639338        8.7382550562  MEMB      72              0.0000000000
      8985        72  DOPE      H10X           21.0166282120       30.0502089516        8.2077452867  MEMB      72              0.0000000000
      8986        72  DOPE      C311           21.4888601504       28.0346435995        7.7105815003  MEMB      72              0.0000000000
      8987        72  DOPE      H11X           21.9208436264       28.3271285398        6.7296824437  MEMB      72              0.0000000000
      8988        72  DOPE      H11Y           22.1314052881       27.2000418265        8.0639901447  MEMB      72              0.0000000000
      8989        72  DOPE      C312           20.1120097193       27.3519317763        7.3975847671  MEMB      72              0.0000000000
      8990        72  DOPE      H12X           19.5643431647       27.1821420875        8.3491900342  MEMB      72              0.0000000000
      8991        72  DOPE      H12Y           20.3211940727       26.3517622805        6.9614381630  MEMB      72              0.0000000000
      8992        72  DOPE      C313           19.2797634843       28.2135392939        6.3483939481  MEMB      72              0.0000000000
      8993        72  DOPE      H13X           18.6476149448       28.8706292879        6.9831712854  MEMB      72              0.0000000000
      8994        72  DOPE      H13Y           20.0145885252       28.8314873518        5.7893830431  MEMB      72              0.0000000000
      8995        72  DOPE      C314           18.5014490602       27.3258359681        5.3605585041  MEMB      72              0.0000000000
      8996        72  DOPE      H14X           17.8878757999       27.9850183652        4.7099223294  MEMB      72              0.0000000000
      8997        72  DOPE      H14Y           17.8637690019       26.6161806536        5.9298342302  MEMB      72              0.0000000000
      8998        72  DOPE      C315           19.4020952425       26.6453284017        4.3810821226  MEMB      72              0.0000000000
      8999        72  DOPE      H15X           19.8799172064       25.7842010725        4.8953465605  MEMB      72              0.0000000000
      9000        72  DOPE      H15Y           20.2207315280       27.2926605234        4.0001401668  MEMB      72              0.0000000000
      9001        72  DOPE      C316           18.6158609421       26.2048577987        3.1373098470  MEMB      72              0.0000000000
      9002        72  DOPE      H16X           19.2479331262       25.7844015066        2.3261237229  MEMB      72              0.0000000000
      9003        72  DOPE      H16Y           18.1539474832       27.1008921876        2.6703206997  MEMB      72              0.0000000000
      9004        72  DOPE      C317           17.3706888161       25.2861395389        3.3890130230  MEMB      72              0.0000000000
      9005        72  DOPE      H17X           17.7795173427       24.3955142137        3.9124309386  MEMB      72              0.0000000000
      9006        72  DOPE      H17Y           16.7284785818       25.7212933249        4.1843292717  MEMB      72              0.0000000000
      9007        72  DOPE      C318           16.6997175455       24.8857723886        2.1018577863  MEMB      72              0.0000000000
      9008        72  DOPE      H18X           16.4159059442       25.8306420449        1.5909832750  MEMB      72              0.0000000000
      9009        72  DOPE      H18Y           17.4553497593       24.4242214062        1.4308049833  MEMB      72              0.0000000000
      9010        72  DOPE      H18Z           15.8569487644       24.1815785433        2.2697058599  MEMB      72              0.0000000000
      9011        73  CHL1      C3            -19.6108998758      -31.2424600962       17.2922600000  MEMB      73              0.0000000000
      9012        73  CHL1      H3            -20.6674794122      -31.4546100674       17.0221500000  MEMB      73              0.0000000000
      9013        73  CHL1      O3            -19.5771317242      -31.0898539038       18.7077400000  MEMB      73              0.0000000000
      9014        73  CHL1      H3'           -19.6058739929      -32.0223792970       18.9339400000  MEMB      73              0.0000000000
      9015        73  CHL1      C4            -18.6834457780      -32.4397780522       16.9431800000  MEMB      73              0.0000000000
      9016        73  CHL1      H4A           -17.6789005359      -32.2001465452       17.3527900000  MEMB      73              0.0000000000
      9017        73  CHL1      H4B           -19.0213139556      -33.3031593093       17.5553400000  MEMB      73              0.0000000000
      9018        73  CHL1      C5            -18.6122305146      -32.5671030441       15.4311000000  MEMB      73              0.0000000000
      9019        73  CHL1      C6            -18.9932896627      -33.6363196705       14.7612800000  MEMB      73              0.0000000000
      9020        73  CHL1      H6            -19.2599157483      -34.5777132164       15.2639600000  MEMB      73              0.0000000000
      9021        73  CHL1      C7            -18.9358487585      -33.8258311491       13.2864600000  MEMB      73              0.0000000000
      9022        73  CHL1      H7A           -18.6136872416      -34.8671553318       13.0715700000  MEMB      73              0.0000000000
      9023        73  CHL1      H7B           -19.9635314122      -33.6730065068       12.8929700000  MEMB      73              0.0000000000
      9024        73  CHL1      C8            -18.0711796457      -32.8045492432       12.6279700000  MEMB      73              0.0000000000
      9025        73  CHL1      H8            -17.0227553908      -32.9160293190       12.9782500000  MEMB      73              0.0000000000
      9026        73  CHL1      C14           -18.1676799913      -32.7803246214       11.1010000000  MEMB      73              0.0000000000
      9027        73  CHL1      H14           -19.2219416469      -32.4737367352       10.9310800000  MEMB      73              0.0000000000
      9028        73  CHL1      C15           -18.0202503911      -34.1736530139       10.3579400000  MEMB      73              0.0000000000
      9029        73  CHL1      H15A          -17.0533566217      -34.6179787996       10.6773200000  MEMB      73              0.0000000000
      9030        73  CHL1      H15B          -18.7908618441      -34.9399302501       10.5888500000  MEMB      73              0.0000000000
      9031        73  CHL1      C16           -17.9432666918      -33.8652558365        8.8557400000  MEMB      73              0.0000000000
      9032        73  CHL1      H16A          -17.1073389046      -34.4322257966        8.3930400000  MEMB      73              0.0000000000
      9033        73  CHL1      H16B          -18.8985146634      -33.9841561110        8.3010500000  MEMB      73              0.0000000000
      9034        73  CHL1      C17           -17.5921253183      -32.3299017274        8.8685300000  MEMB      73              0.0000000000
      9035        73  CHL1      H17           -18.6182080625      -31.9212631629        8.7481600000  MEMB      73              0.0000000000
      9036        73  CHL1      C13           -17.3264264212      -31.8648102230       10.3069700000  MEMB      73              0.0000000000
      9037        73  CHL1      C18           -15.7949900915      -32.1153687202       10.5395900000  MEMB      73              0.0000000000
      9038        73  CHL1      H18A          -15.5751067233      -33.1602216429       10.2326000000  MEMB      73              0.0000000000
      9039        73  CHL1      H18B          -15.1628467473      -31.5419343358        9.8283300000  MEMB      73              0.0000000000
      9040        73  CHL1      H18C          -15.4607895067      -32.0836233072       11.5986500000  MEMB      73              0.0000000000
      9041        73  CHL1      C12           -17.7786139180      -30.4370766720       10.7540500000  MEMB      73              0.0000000000
      9042        73  CHL1      H12A          -17.2461891129      -29.7018755757       10.1134900000  MEMB      73              0.0000000000
      9043        73  CHL1      H12B          -18.8388062070      -30.3257668175       10.4411200000  MEMB      73              0.0000000000
      9044        73  CHL1      C11           -17.6724167889      -30.2469597651       12.3038000000  MEMB      73              0.0000000000
      9045        73  CHL1      H11A          -16.5733240142      -30.3357227527       12.4396300000  MEMB      73              0.0000000000
      9046        73  CHL1      H11B          -17.9597556240      -29.2197448749       12.6145700000  MEMB      73              0.0000000000
      9047        73  CHL1      C9            -18.3396925259      -31.3584651031       13.1558600000  MEMB      73              0.0000000000
      9048        73  CHL1      H9            -19.4155253564      -31.1930819988       12.9332500000  MEMB      73              0.0000000000
      9049        73  CHL1      C10           -18.1657524921      -31.2817475886       14.7081400000  MEMB      73              0.0000000000
      9050        73  CHL1      C19           -16.7531887173      -30.8426122482       15.0185100000  MEMB      73              0.0000000000
      9051        73  CHL1      H19A          -16.5661093461      -31.1215419043       16.0775300000  MEMB      73              0.0000000000
      9052        73  CHL1      H19B          -16.0499095312      -31.2493423957       14.2606900000  MEMB      73              0.0000000000
      9053        73  CHL1      H19C          -16.7295238409      -29.7345970565       14.9405700000  MEMB      73              0.0000000000
      9054        73  CHL1      C1            -19.0094353912      -30.0916702937       15.0958300000  MEMB      73              0.0000000000
      9055        73  CHL1      H1A           -18.7115920348      -29.1690623114       14.5532300000  MEMB      73              0.0000000000
      9056        73  CHL1      H1B           -20.0331351428      -30.3156967224       14.7268200000  MEMB      73              0.0000000000
      9057        73  CHL1      C2            -19.1735918196      -29.8978296356       16.6446000000  MEMB      73              0.0000000000
      9058        73  CHL1      H2A           -19.8588673184      -29.0601103012       16.8955000000  MEMB      73              0.0000000000
      9059        73  CHL1      H2B           -18.1543941321      -29.6638418104       17.0198400000  MEMB      73              0.0000000000
      9060        73  CHL1      C20           -16.6938840662      -31.8062755975        7.6982400000  MEMB      73              0.0000000000
      9061        73  CHL1      H20           -15.6492842068      -32.1652473266        7.8176600000  MEMB      73              0.0000000000
      9062        73  CHL1      C21           -16.5909779673      -30.2222639441        7.4430000000  MEMB      73              0.0000000000
      9063        73  CHL1      H21A          -17.5807843353      -29.7213821710        7.3821600000  MEMB      73              0.0000000000
      9064        73  CHL1      H21B          -16.1160922909      -30.0029342996        6.4628400000  MEMB      73              0.0000000000
      9065        73  CHL1      H21C          -15.9706598983      -29.7785744358        8.2508700000  MEMB      73              0.0000000000
      9066        73  CHL1      C22           -17.1319358370      -32.4593030094        6.4113200000  MEMB      73              0.0000000000
      9067        73  CHL1      H22A          -16.3705783839      -32.2112261812        5.6411900000  MEMB      73              0.0000000000
      9068        73  CHL1      H22B          -17.1376389980      -33.5648642085        6.5209600000  MEMB      73              0.0000000000
      9069        73  CHL1      C23           -18.5142348436      -32.0107206312        5.9207000000  MEMB      73              0.0000000000
      9070        73  CHL1      H23A          -19.2928935352      -32.5597973746        6.4921400000  MEMB      73              0.0000000000
      9071        73  CHL1      H23B          -18.6790909929      -30.9426872170        6.1784900000  MEMB      73              0.0000000000
      9072        73  CHL1      C24           -18.7925934249      -32.2962601521        4.3844300000  MEMB      73              0.0000000000
      9073        73  CHL1      H24A          -18.1176377603      -31.5720529902        3.8801700000  MEMB      73              0.0000000000
      9074        73  CHL1      H24B          -18.5258688093      -33.3302283863        4.0777000000  MEMB      73              0.0000000000
      9075        73  CHL1      C25           -20.1842249775      -32.0329780708        3.8629600000  MEMB      73              0.0000000000
      9076        73  CHL1      H25           -20.7903536078      -32.9283451190        4.1183700000  MEMB      73              0.0000000000
      9077        73  CHL1      C26           -21.0334650909      -30.9186874329        4.5674400000  MEMB      73              0.0000000000
      9078        73  CHL1      H26A          -22.0500066170      -30.9629905467        4.1213300000  MEMB      73              0.0000000000
      9079        73  CHL1      H26B          -21.1223114520      -30.9434974695        5.6746100000  MEMB      73              0.0000000000
      9080        73  CHL1      H26C          -20.4807274067      -29.9934259677        4.2978700000  MEMB      73              0.0000000000
      9081        73  CHL1      C27           -20.3867109406      -31.6906645167        2.3461700000  MEMB      73              0.0000000000
      9082        73  CHL1      H27A          -19.6287781149      -30.9189148944        2.0927000000  MEMB      73              0.0000000000
      9083        73  CHL1      H27B          -20.2713800619      -32.6065462856        1.7279600000  MEMB      73              0.0000000000
      9084        73  CHL1      H27C          -21.3495664707      -31.1595960523        2.1874400000  MEMB      73              0.0000000000
      9085        74  CHL1      C3            -12.4180080775      -35.4281795620       17.2547500000  MEMB      74              0.0000000000
      9086        74  CHL1      H3            -13.1962912275      -36.1701776543       16.9753900000  MEMB      74              0.0000000000
      9087        74  CHL1      O3            -12.3772043225      -35.2987710380       18.7452500000  MEMB      74              0.0000000000
      9088        74  CHL1      H3'           -12.0473786058      -36.1151051874       19.1278700000  MEMB      74              0.0000000000
      9089        74  CHL1      C4            -11.0205627736      -35.8611830976       16.7360200000  MEMB      74              0.0000000000
      9090        74  CHL1      H4A           -10.2646183366      -35.2624084604       17.2876800000  MEMB      74              0.0000000000
      9091        74  CHL1      H4B           -10.8516890956      -36.8576414059       17.1974200000  MEMB      74              0.0000000000
      9092        74  CHL1      C5            -10.8425566167      -35.8101354913       15.2338300000  MEMB      74              0.0000000000
      9093        74  CHL1      C6            -10.1784631064      -36.8151538124       14.6261400000  MEMB      74              0.0000000000
      9094        74  CHL1      H6             -9.7932503177      -37.6609404854       15.2145800000  MEMB      74              0.0000000000
      9095        74  CHL1      C7            -10.1739068871      -36.8753983629       13.1501400000  MEMB      74              0.0000000000
      9096        74  CHL1      H7A            -9.3158543159      -37.4230297137       12.7049700000  MEMB      74              0.0000000000
      9097        74  CHL1      H7B           -11.0249825936      -37.4892025060       12.7851300000  MEMB      74              0.0000000000
      9098        74  CHL1      C8            -10.2952007901      -35.5186359688       12.4065300000  MEMB      74              0.0000000000
      9099        74  CHL1      H8             -9.3988090131      -34.8863620379       12.5827200000  MEMB      74              0.0000000000
      9100        74  CHL1      C14           -10.5168192879      -35.7634548705       10.8801100000  MEMB      74              0.0000000000
      9101        74  CHL1      H14           -11.4985305644      -36.2800158499       10.8190200000  MEMB      74              0.0000000000
      9102        74  CHL1      C15            -9.4438210324      -36.4470728566        9.9621400000  MEMB      74              0.0000000000
      9103        74  CHL1      H15A           -8.4587543575      -36.1088378996       10.3488800000  MEMB      74              0.0000000000
      9104        74  CHL1      H15B           -9.6202461543      -37.5405046376       10.0494200000  MEMB      74              0.0000000000
      9105        74  CHL1      C16            -9.6897981444      -35.9728144899        8.5423700000  MEMB      74              0.0000000000
      9106        74  CHL1      H16A           -8.7514504334      -35.5564050306        8.1175800000  MEMB      74              0.0000000000
      9107        74  CHL1      H16B           -9.9996012899      -36.8919179909        8.0005400000  MEMB      74              0.0000000000
      9108        74  CHL1      C17           -10.8605511142      -34.9195173478        8.6478800000  MEMB      74              0.0000000000
      9109        74  CHL1      H17           -11.8478280820      -35.4118206114        8.5165600000  MEMB      74              0.0000000000
      9110        74  CHL1      C13           -10.8214000841      -34.4484884922       10.1747900000  MEMB      74              0.0000000000
      9111        74  CHL1      C18            -9.6558190060      -33.4073296681       10.2940900000  MEMB      74              0.0000000000
      9112        74  CHL1      H18A           -9.4706266870      -33.1970196696       11.3691700000  MEMB      74              0.0000000000
      9113        74  CHL1      H18B           -8.7368252858      -33.7713887631        9.7869000000  MEMB      74              0.0000000000
      9114        74  CHL1      H18C           -9.8983937356      -32.4357165805        9.8130000000  MEMB      74              0.0000000000
      9115        74  CHL1      C12           -12.1396710460      -33.7359196510       10.7618300000  MEMB      74              0.0000000000
      9116        74  CHL1      H12A          -12.3856010912      -32.7951419791       10.2244500000  MEMB      74              0.0000000000
      9117        74  CHL1      H12B          -12.8945300259      -34.5154353400       10.5233700000  MEMB      74              0.0000000000
      9118        74  CHL1      C11           -12.0366704965      -33.4783071207       12.2747100000  MEMB      74              0.0000000000
      9119        74  CHL1      H11A          -11.2092567919      -32.7537867372       12.4321400000  MEMB      74              0.0000000000
      9120        74  CHL1      H11B          -13.0101955911      -33.1253910287       12.6772300000  MEMB      74              0.0000000000
      9121        74  CHL1      C9            -11.5862073724      -34.8067247772       12.9791400000  MEMB      74              0.0000000000
      9122        74  CHL1      H9            -12.4755677807      -35.4343267542       12.7566900000  MEMB      74              0.0000000000
      9123        74  CHL1      C10           -11.6011847321      -34.6800629862       14.5169800000  MEMB      74              0.0000000000
      9124        74  CHL1      C19           -10.5705130536      -33.5033299747       14.7612700000  MEMB      74              0.0000000000
      9125        74  CHL1      H19A          -10.3126380683      -33.4452846300       15.8403700000  MEMB      74              0.0000000000
      9126        74  CHL1      H19B           -9.6291905088      -33.6147193427       14.1817700000  MEMB      74              0.0000000000
      9127        74  CHL1      H19C          -11.0751769131      -32.5351116052       14.5558500000  MEMB      74              0.0000000000
      9128        74  CHL1      C1            -12.9454867524      -34.2956680703       15.1461900000  MEMB      74              0.0000000000
      9129        74  CHL1      H1A           -13.1756366240      -33.2946348416       14.7227800000  MEMB      74              0.0000000000
      9130        74  CHL1      H1B           -13.7307094891      -35.0529881905       14.9359400000  MEMB      74              0.0000000000
      9131        74  CHL1      C2            -12.7908631313      -34.0997269447       16.6699100000  MEMB      74              0.0000000000
      9132        74  CHL1      H2A           -13.7183131164      -33.6039314631       17.0281600000  MEMB      74              0.0000000000
      9133        74  CHL1      H2B           -11.9552562360      -33.3794719600       16.8015200000  MEMB      74              0.0000000000
      9134        74  CHL1      C20           -10.8297661668      -34.0296771162        7.4437400000  MEMB      74              0.0000000000
      9135        74  CHL1      H20            -9.9414383429      -33.3873707599        7.6244000000  MEMB      74              0.0000000000
      9136        74  CHL1      C21           -12.0774432335      -33.1125696343        7.4399600000  MEMB      74              0.0000000000
      9137        74  CHL1      H21A          -12.3580554042      -32.6782826875        6.4566100000  MEMB      74              0.0000000000
      9138        74  CHL1      H21B          -12.2063616865      -32.2599073151        8.1404400000  MEMB      74              0.0000000000
      9139        74  CHL1      H21C          -12.9266077447      -33.7839064563        7.6900500000  MEMB      74              0.0000000000
      9140        74  CHL1      C22           -10.5990442399      -34.7834730200        6.1509800000  MEMB      74              0.0000000000
      9141        74  CHL1      H22A           -9.5723427546      -35.1936180625        6.2603900000  MEMB      74              0.0000000000
      9142        74  CHL1      H22B          -11.4494650882      -35.4973433595        6.1121600000  MEMB      74              0.0000000000
      9143        74  CHL1      C23           -10.4197705747      -33.9291138835        4.8197100000  MEMB      74              0.0000000000
      9144        74  CHL1      H23A          -11.3684686808      -33.3809720424        4.6357800000  MEMB      74              0.0000000000
      9145        74  CHL1      H23B           -9.5721741631      -33.2388705848        5.0183400000  MEMB      74              0.0000000000
      9146        74  CHL1      C24           -10.0711954735      -34.8592515842        3.6932800000  MEMB      74              0.0000000000
      9147        74  CHL1      H24A           -8.9774303053      -35.0518759175        3.7230500000  MEMB      74              0.0000000000
      9148        74  CHL1      H24B          -10.6389091883      -35.8125823856        3.7498000000  MEMB      74              0.0000000000
      9149        74  CHL1      C25           -10.3125038939      -34.2141855777        2.2978200000  MEMB      74              0.0000000000
      9150        74  CHL1      H25           -11.3843074616      -33.9291900004        2.3637000000  MEMB      74              0.0000000000
      9151        74  CHL1      C26            -9.4327163275      -33.0342639559        2.0362700000  MEMB      74              0.0000000000
      9152        74  CHL1      H26A           -9.3983490209      -32.7407357788        0.9652900000  MEMB      74              0.0000000000
      9153        74  CHL1      H26B           -9.8150112512      -32.2758775012        2.7525200000  MEMB      74              0.0000000000
      9154        74  CHL1      H26C           -8.4013305571      -33.3310882802        2.3234400000  MEMB      74              0.0000000000
      9155        74  CHL1      C27           -10.0599450521      -35.1672572952        1.1379500000  MEMB      74              0.0000000000
      9156        74  CHL1      H27A          -10.8440078488      -35.9526520220        1.0857900000  MEMB      74              0.0000000000
      9157        74  CHL1      H27B          -10.2106480762      -34.6259726563        0.1795000000  MEMB      74              0.0000000000
      9158        74  CHL1      H27C           -9.0326246999      -35.5861086058        1.1970500000  MEMB      74              0.0000000000
      9159        75  DOPE      N              -4.3868569353       36.1895914146       17.9222691604  MEMB      75              0.0000000000
      9160        75  DOPE      HN1            -4.9264626606       36.8589910668       17.3371795401  MEMB      75              0.0000000000
      9161        75  DOPE      HN2            -3.5512528292       35.8026325738       17.4389177853  MEMB      75              0.0000000000
      9162        75  DOPE      HN3            -5.0548276832       35.4183588859       18.1238019168  MEMB      75              0.0000000000
      9163        75  DOPE      C12            -4.0909774969       36.9809089756       19.1494511216  MEMB      75              0.0000000000
      9164        75  DOPE      H12A           -3.6375769156       37.9570261470       18.8738711293  MEMB      75              0.0000000000
      9165        75  DOPE      H12B           -3.4060544003       36.3017464377       19.7007581383  MEMB      75              0.0000000000
      9166        75  DOPE      C11            -5.4297088011       37.1043910748       19.9487973791  MEMB      75              0.0000000000
      9167        75  DOPE      H11A           -5.2627545840       37.7934080021       20.8041938561  MEMB      75              0.0000000000
      9168        75  DOPE      H11B           -5.7730021251       36.1142838757       20.3177940152  MEMB      75              0.0000000000
      9169        75  DOPE      P              -7.7920657103       37.4038082280       18.9961947275  MEMB      75              0.0000000000
      9170        75  DOPE      O13            -8.4263901295       37.7543696726       20.3156843553  MEMB      75              0.0000000000
      9171        75  DOPE      O14            -7.7705738834       35.9999413209       18.6372190503  MEMB      75              0.0000000000
      9172        75  DOPE      O11            -8.2664404766       38.3368581474       17.8470791029  MEMB      75              0.0000000000
      9173        75  DOPE      O12            -6.3469418553       37.7587484792       19.1833051063  MEMB      75              0.0000000000
      9174        75  DOPE      C1             -7.3941385894       38.7772735611       16.7941707751  MEMB      75              0.0000000000
      9175        75  DOPE      HA             -6.7969541001       37.8794628982       16.5265374850  MEMB      75              0.0000000000
      9176        75  DOPE      HB             -6.7774580742       39.6162840977       17.1815822036  MEMB      75              0.0000000000
      9177        75  DOPE      C2             -8.2031631327       39.1670442134       15.5535666890  MEMB      75              0.0000000000
      9178        75  DOPE      HS             -8.9237269536       39.9357345612       15.9060204904  MEMB      75              0.0000000000
      9179        75  DOPE      O21            -8.9835135354       38.0736661253       14.9119344869  MEMB      75              0.0000000000
      9180        75  DOPE      C21           -10.1110801336       37.8032567240       15.5271515606  MEMB      75              0.0000000000
      9181        75  DOPE      O22           -10.6554222678       38.4189861783       16.4149642357  MEMB      75              0.0000000000
      9182        75  DOPE      C22           -10.6393366623       36.4372196801       14.9653806144  MEMB      75              0.0000000000
      9183        75  DOPE      H2R           -10.8372115902       35.7724752625       15.8332985989  MEMB      75              0.0000000000
      9184        75  DOPE      H2S            -9.9200576764       35.9410721958       14.2792347777  MEMB      75              0.0000000000
      9185        75  DOPE      C3             -7.2647865281       39.7204422828       14.4691832337  MEMB      75              0.0000000000
      9186        75  DOPE      HX             -6.7762769765       40.5861574988       14.9653851626  MEMB      75              0.0000000000
      9187        75  DOPE      HY             -7.8518906461       40.1004964095       13.6059401673  MEMB      75              0.0000000000
      9188        75  DOPE      O31            -6.4390211751       38.7127259933       13.9404217755  MEMB      75              0.0000000000
      9189        75  DOPE      C31            -5.2235903418       38.6998905213       14.4654962879  MEMB      75              0.0000000000
      9190        75  DOPE      O32            -4.7219216144       39.4565043066       15.3129780609  MEMB      75              0.0000000000
      9191        75  DOPE      C32            -4.4189851288       37.6396130858       13.7336849767  MEMB      75              0.0000000000
      9192        75  DOPE      H2X            -3.3952998432       37.6730743456       14.1641148007  MEMB      75              0.0000000000
      9193        75  DOPE      H2Y            -4.8526579724       36.6181241134       13.6806844866  MEMB      75              0.0000000000
      9194        75  DOPE      C23           -12.0231071099       36.7143783398       14.3088135504  MEMB      75              0.0000000000
      9195        75  DOPE      H3R           -12.5861124247       37.0292208316       15.2133688380  MEMB      75              0.0000000000
      9196        75  DOPE      H3S           -12.4111765721       35.7663016295       13.8788440030  MEMB      75              0.0000000000
      9197        75  DOPE      C24           -12.0383949859       37.6981925309       13.1203557991  MEMB      75              0.0000000000
      9198        75  DOPE      H4R           -11.5912535322       38.6334810258       13.5198815000  MEMB      75              0.0000000000
      9199        75  DOPE      H4S           -13.1098812592       37.8639571453       12.8779516734  MEMB      75              0.0000000000
      9200        75  DOPE      C25           -11.3166138314       37.3926757196       11.8370988928  MEMB      75              0.0000000000
      9201        75  DOPE      H5R           -11.5903196613       36.4506651733       11.3155414295  MEMB      75              0.0000000000
      9202        75  DOPE      H5S           -10.2606400276       37.1775096805       12.1071799026  MEMB      75              0.0000000000
      9203        75  DOPE      C26           -11.0581407493       38.5385821805       10.8223478155  MEMB      75              0.0000000000
      9204        75  DOPE      H6R           -10.1377011209       39.0133818820       11.2244399783  MEMB      75              0.0000000000
      9205        75  DOPE      H6S           -11.8778930481       39.2786094105       10.9435370295  MEMB      75              0.0000000000
      9206        75  DOPE      C27           -10.7229146034       38.1445821333        9.3079369643  MEMB      75              0.0000000000
      9207        75  DOPE      H7R           -10.6325278825       39.0842664769        8.7221513419  MEMB      75              0.0000000000
      9208        75  DOPE      H7S           -11.6495174242       37.5676772135        9.1007924684  MEMB      75              0.0000000000
      9209        75  DOPE      C28            -9.3382906550       37.4052102771        9.3117278037  MEMB      75              0.0000000000
      9210        75  DOPE      H8R            -9.2973812030       36.7052790350        8.4499020088  MEMB      75              0.0000000000
      9211        75  DOPE      H8S            -9.4407778742       36.8490174538       10.2680057774  MEMB      75              0.0000000000
      9212        75  DOPE      C29            -8.0775132505       38.2206425441        9.5127236837  MEMB      75              0.0000000000
      9213        75  DOPE      H9R            -7.5083699361       38.0156101642       10.4314385573  MEMB      75              0.0000000000
      9214        75  DOPE      C210           -7.5313917137       38.9780704780        8.5209273392  MEMB      75              0.0000000000
      9215        75  DOPE      H10R           -6.6185152695       39.5534870218        8.7343584126  MEMB      75              0.0000000000
      9216        75  DOPE      C211           -8.0444680073       39.1306130901        7.0634536851  MEMB      75              0.0000000000
      9217        75  DOPE      H11R           -8.8897763838       38.4136295571        6.9878939223  MEMB      75              0.0000000000
      9218        75  DOPE      H11S           -7.3788095132       38.7773950508        6.2470856358  MEMB      75              0.0000000000
      9219        75  DOPE      C212           -8.5833926069       40.5544280854        6.5138942898  MEMB      75              0.0000000000
      9220        75  DOPE      H12R           -7.9408535017       41.3374654662        6.9703122359  MEMB      75              0.0000000000
      9221        75  DOPE      H12S           -9.6172968515       40.6681721500        6.9043109318  MEMB      75              0.0000000000
      9222        75  DOPE      C213           -8.8342142838       40.6677720226        5.0412986113  MEMB      75              0.0000000000
      9223        75  DOPE      H13R           -7.8837109266       40.7130322361        4.4678741571  MEMB      75              0.0000000000
      9224        75  DOPE      H13S           -9.3591737418       41.6327795287        4.8754727569  MEMB      75              0.0000000000
      9225        75  DOPE      C214           -9.5736806014       39.3695515440        4.5365643302  MEMB      75              0.0000000000
      9226        75  DOPE      H14R          -10.4358855416       39.2045085252        5.2175080987  MEMB      75              0.0000000000
      9227        75  DOPE      H14S           -8.8840400106       38.5019614130        4.6140484399  MEMB      75              0.0000000000
      9228        75  DOPE      C215           -9.9363250337       39.4790809955        3.0851494642  MEMB      75              0.0000000000
      9229        75  DOPE      H15R           -9.0535090526       39.6771628420        2.4403859303  MEMB      75              0.0000000000
      9230        75  DOPE      H15S          -10.5629436977       40.3958824299        3.1189821315  MEMB      75              0.0000000000
      9231        75  DOPE      C216          -10.7482827343       38.1923795637        2.6997251272  MEMB      75              0.0000000000
      9232        75  DOPE      H16R          -11.6437338769       38.1313511191        3.3545249569  MEMB      75              0.0000000000
      9233        75  DOPE      H16S          -10.0745097311       37.3260809704        2.8725775733  MEMB      75              0.0000000000
      9234        75  DOPE      C217          -11.2041477013       38.1822403384        1.2307169694  MEMB      75              0.0000000000
      9235        75  DOPE      H17R          -11.6157883357       37.1537641357        1.1463970258  MEMB      75              0.0000000000
      9236        75  DOPE      H17S          -10.3947952171       38.2492281984        0.4725733056  MEMB      75              0.0000000000
      9237        75  DOPE      C218          -12.3812580057       39.0670865374        0.8983944243  MEMB      75              0.0000000000
      9238        75  DOPE      H18R          -13.2739621756       38.8349358653        1.5176726938  MEMB      75              0.0000000000
      9239        75  DOPE      H18S          -12.7821920785       39.0807035811       -0.1376487990  MEMB      75              0.0000000000
      9240        75  DOPE      H18T          -12.1801128932       40.1539742301        1.0103647298  MEMB      75              0.0000000000
      9241        75  DOPE      C33            -4.2584424767       38.0805770335       12.2401641614  MEMB      75              0.0000000000
      9242        75  DOPE      H3X            -3.8472236950       39.1120448065       12.2761424963  MEMB      75              0.0000000000
      9243        75  DOPE      H3Y            -5.2740699571       38.0310301473       11.7925408985  MEMB      75              0.0000000000
      9244        75  DOPE      C34            -3.2335680673       37.2249582917       11.4208359788  MEMB      75              0.0000000000
      9245        75  DOPE      H4X            -3.2644026568       37.5329370391       10.3538218637  MEMB      75              0.0000000000
      9246        75  DOPE      H4Y            -2.2450358315       37.4866974438       11.8551376912  MEMB      75              0.0000000000
      9247        75  DOPE      C35            -3.4184783214       35.6819683703       11.5017763768  MEMB      75              0.0000000000
      9248        75  DOPE      H5X            -2.9640136329       35.2519176329       12.4198388716  MEMB      75              0.0000000000
      9249        75  DOPE      H5Y            -2.8056358896       35.2885606805       10.6627437336  MEMB      75              0.0000000000
      9250        75  DOPE      C36            -4.7237688935       35.1029249700       10.9227349726  MEMB      75              0.0000000000
      9251        75  DOPE      H6X            -5.5626467617       35.5407650161       11.5048868932  MEMB      75              0.0000000000
      9252        75  DOPE      H6Y            -4.6637609997       33.9976233368       11.0177545104  MEMB      75              0.0000000000
      9253        75  DOPE      C37            -5.0730280345       35.4841607670        9.4393457920  MEMB      75              0.0000000000
      9254        75  DOPE      H7X            -5.0311392259       36.5943555154        9.4451557240  MEMB      75              0.0000000000
      9255        75  DOPE      H7Y            -4.2305044502       35.1073381036        8.8208961393  MEMB      75              0.0000000000
      9256        75  DOPE      C38            -6.4523946233       35.0766556685        9.0150840665  MEMB      75              0.0000000000
      9257        75  DOPE      H8X            -6.7053787357       35.6947750632        8.1272509440  MEMB      75              0.0000000000
      9258        75  DOPE      H8Y            -7.2825392327       35.3308348422        9.7083187904  MEMB      75              0.0000000000
      9259        75  DOPE      C39            -6.5482274173       33.6107676128        8.7526575384  MEMB      75              0.0000000000
      9260        75  DOPE      H9X            -6.0869449702       32.9624840514        9.5122273576  MEMB      75              0.0000000000
      9261        75  DOPE      C310           -7.1376733045       33.0975230117        7.7201504628  MEMB      75              0.0000000000
      9262        75  DOPE      H10X           -7.1451266964       32.0038101115        7.6029491297  MEMB      75              0.0000000000
      9263        75  DOPE      C311           -7.8592651579       33.8423606666        6.5732946063  MEMB      75              0.0000000000
      9264        75  DOPE      H11X           -8.9113334892       33.4855382346        6.5609996237  MEMB      75              0.0000000000
      9265        75  DOPE      H11Y           -7.8889105995       34.9458880365        6.6984726260  MEMB      75              0.0000000000
      9266        75  DOPE      C312           -7.3118793742       33.5097236628        5.1923017765  MEMB      75              0.0000000000
      9267        75  DOPE      H12X           -7.0233697489       32.4492268922        5.0297279568  MEMB      75              0.0000000000
      9268        75  DOPE      H12Y           -6.5162106686       34.2016443988        4.8423332313  MEMB      75              0.0000000000
      9269        75  DOPE      C313           -8.4558801419       33.7610089847        4.2081855894  MEMB      75              0.0000000000
      9270        75  DOPE      H13X           -9.3736081590       33.1658147013        4.4027104149  MEMB      75              0.0000000000
      9271        75  DOPE      H13Y           -8.7900274457       34.8190486346        4.2649207474  MEMB      75              0.0000000000
      9272        75  DOPE      C314           -8.0745613862       33.6943828973        2.7075595875  MEMB      75              0.0000000000
      9273        75  DOPE      H14X           -9.0990924071       33.6709628707        2.2784808689  MEMB      75              0.0000000000
      9274        75  DOPE      H14Y           -7.6093071178       32.6996513541        2.5391309520  MEMB      75              0.0000000000
      9275        75  DOPE      C315           -7.0005817558       34.6863215250        2.0867387188  MEMB      75              0.0000000000
      9276        75  DOPE      H15X           -7.0131518798       34.6395871215        0.9767931725  MEMB      75              0.0000000000
      9277        75  DOPE      H15Y           -6.0391944687       34.3793151002        2.5512823442  MEMB      75              0.0000000000
      9278        75  DOPE      C316           -7.0829312029       36.1550507850        2.4569999628  MEMB      75              0.0000000000
      9279        75  DOPE      H16X           -7.1531844583       36.2243791191        3.5636069804  MEMB      75              0.0000000000
      9280        75  DOPE      H16Y           -8.0447340025       36.4993095170        2.0202580023  MEMB      75              0.0000000000
      9281        75  DOPE      C317           -5.8922658193       37.0943424997        2.0901302480  MEMB      75              0.0000000000
      9282        75  DOPE      H17X           -5.0274920971       36.8171952982        2.7301892906  MEMB      75              0.0000000000
      9283        75  DOPE      H17Y           -5.6607973873       36.9922663296        1.0083139424  MEMB      75              0.0000000000
      9284        75  DOPE      C318           -6.3463135396       38.5376617333        2.3023008608  MEMB      75              0.0000000000
      9285        75  DOPE      H18X           -6.9612190195       38.9402857318        1.4691703986  MEMB      75              0.0000000000
      9286        75  DOPE      H18Y           -6.9282845013       38.6369019987        3.2434605494  MEMB      75              0.0000000000
      9287        75  DOPE      H18Z           -5.4818259365       39.2351604499        2.2804391676  MEMB      75              0.0000000000
      9288        76  DOPC      N             -26.8951056767      -24.7769149244       20.0375230284  MEMB      76              0.0000000000
      9289        76  DOPC      C12           -25.9322299317      -25.0341381579       18.8357326325  MEMB      76              0.0000000000
      9290        76  DOPC      H12A          -24.9688020397      -24.5598377240       18.9508225863  MEMB      76              0.0000000000
      9291        76  DOPC      H12B          -26.4585287348      -24.6148354905       17.9909871729  MEMB      76              0.0000000000
      9292        76  DOPC      C13           -26.1120298674      -25.1351304737       21.2676974354  MEMB      76              0.0000000000
      9293        76  DOPC      H13A          -25.2690098237      -24.4771267698       21.4185227353  MEMB      76              0.0000000000
      9294        76  DOPC      H13B          -26.7330975092      -25.2808482269       22.1391567980  MEMB      76              0.0000000000
      9295        76  DOPC      H13C          -25.7452822545      -26.1360453508       21.0943033001  MEMB      76              0.0000000000
      9296        76  DOPC      C14           -28.1305660984      -25.6340157424       19.8747074788  MEMB      76              0.0000000000
      9297        76  DOPC      H14A          -28.6274016803      -25.4557513615       18.9324887411  MEMB      76              0.0000000000
      9298        76  DOPC      H14B          -27.8287890444      -26.6582334112       20.0369076948  MEMB      76              0.0000000000
      9299        76  DOPC      H14C          -28.8250662996      -25.2620332139       20.6134214626  MEMB      76              0.0000000000
      9300        76  DOPC      C15           -27.2906574486      -23.3559178139       20.1367787071  MEMB      76              0.0000000000
      9301        76  DOPC      H15A          -27.9807651273      -23.0990696004       19.3467276751  MEMB      76              0.0000000000
      9302        76  DOPC      H15B          -26.4387130381      -22.6922296473       20.1472034652  MEMB      76              0.0000000000
      9303        76  DOPC      H15C          -27.8261232415      -23.2402001014       21.0675235702  MEMB      76              0.0000000000
      9304        76  DOPC      C11           -25.5431038004      -26.4812598897       18.6117769783  MEMB      76              0.0000000000
      9305        76  DOPC      H11A          -24.9238747449      -26.3831410115       17.6945807635  MEMB      76              0.0000000000
      9306        76  DOPC      H11B          -24.9314074482      -26.7369141487       19.5032866437  MEMB      76              0.0000000000
      9307        76  DOPC      P             -26.3555284741      -28.9740967535       18.0704203074  MEMB      76              0.0000000000
      9308        76  DOPC      O13           -27.5169783859      -29.7706573623       17.5870678660  MEMB      76              0.0000000000
      9309        76  DOPC      O14           -25.6827208517      -29.5317231689       19.1822163376  MEMB      76              0.0000000000
      9310        76  DOPC      O12           -26.6448181434      -27.4484174260       18.4524691559  MEMB      76              0.0000000000
      9311        76  DOPC      O11           -25.2887341252      -28.9550879864       16.9436101043  MEMB      76              0.0000000000
      9312        76  DOPC      C1            -23.8730464316      -29.2828982044       17.0953075259  MEMB      76              0.0000000000
      9313        76  DOPC      HA            -23.8181151622      -30.1800788744       17.7482781823  MEMB      76              0.0000000000
      9314        76  DOPC      HB            -23.4328728998      -28.3591618024       17.5280650932  MEMB      76              0.0000000000
      9315        76  DOPC      C2            -23.1505025782      -29.4376444135       15.7164830232  MEMB      76              0.0000000000
      9316        76  DOPC      HS            -22.1174787140      -29.7445120826       15.9866958872  MEMB      76              0.0000000000
      9317        76  DOPC      O21           -23.0864653837      -28.1685372345       15.0611261611  MEMB      76              0.0000000000
      9318        76  DOPC      C21           -22.2309507536      -28.0404829870       14.0550438894  MEMB      76              0.0000000000
      9319        76  DOPC      O22           -21.2820346646      -28.7301241222       13.7730140038  MEMB      76              0.0000000000
      9320        76  DOPC      C22           -22.5025191306      -26.7504046481       13.3252273294  MEMB      76              0.0000000000
      9321        76  DOPC      H2R           -21.8697390151      -26.0201268981       13.8735022079  MEMB      76              0.0000000000
      9322        76  DOPC      H2S           -23.5641771005      -26.4355549985       13.4150780247  MEMB      76              0.0000000000
      9323        76  DOPC      C3            -23.7908189822      -30.5672888401       14.7910112406  MEMB      76              0.0000000000
      9324        76  DOPC      HX            -23.9894087259      -31.5436943699       15.2824530897  MEMB      76              0.0000000000
      9325        76  DOPC      HY            -23.0646044843      -30.8211335471       13.9894525116  MEMB      76              0.0000000000
      9326        76  DOPC      O31           -25.0680742510      -30.0634247995       14.3804837457  MEMB      76              0.0000000000
      9327        76  DOPC      C31           -25.2393592561      -29.6416578839       13.1396314270  MEMB      76              0.0000000000
      9328        76  DOPC      O32           -24.4356806774      -29.5617986045       12.2728770573  MEMB      76              0.0000000000
      9329        76  DOPC      C32           -26.6906469671      -29.1867020345       12.8927070838  MEMB      76              0.0000000000
      9330        76  DOPC      H2X           -27.3247558115      -30.0939673630       12.7973313562  MEMB      76              0.0000000000
      9331        76  DOPC      H2Y           -26.9592147946      -28.6370664734       13.8201193671  MEMB      76              0.0000000000
      9332        76  DOPC      C23           -21.8990307882      -26.6328297399       11.8882777162  MEMB      76              0.0000000000
      9333        76  DOPC      H3R           -22.2729507673      -27.3843049346       11.1604107998  MEMB      76              0.0000000000
      9334        76  DOPC      H3S           -20.8161082343      -26.8530927239       12.0026612806  MEMB      76              0.0000000000
      9335        76  DOPC      C24           -22.0045743078      -25.1930945856       11.3396985885  MEMB      76              0.0000000000
      9336        76  DOPC      H4R           -21.4695611399      -24.5290437391       12.0518213216  MEMB      76              0.0000000000
      9337        76  DOPC      H4S           -23.0524534298      -24.8403739739       11.2308024443  MEMB      76              0.0000000000
      9338        76  DOPC      C25           -21.3087367376      -24.9252254374        9.9930367295  MEMB      76              0.0000000000
      9339        76  DOPC      H5R           -20.2961248707      -25.3721259810        9.8970244169  MEMB      76              0.0000000000
      9340        76  DOPC      H5S           -21.1641646445      -23.8252341143        9.9343941589  MEMB      76              0.0000000000
      9341        76  DOPC      C26           -22.1687596821      -25.3744268972        8.7872261287  MEMB      76              0.0000000000
      9342        76  DOPC      H6R           -23.0367666388      -24.6898809781        8.6764025484  MEMB      76              0.0000000000
      9343        76  DOPC      H6S           -22.5937593338      -26.3743306833        9.0193661623  MEMB      76              0.0000000000
      9344        76  DOPC      C27           -21.4765071559      -25.2587759643        7.3900009716  MEMB      76              0.0000000000
      9345        76  DOPC      H7R           -20.5610306033      -25.8881479922        7.4006874457  MEMB      76              0.0000000000
      9346        76  DOPC      H7S           -21.3115550781      -24.1744469880        7.2129622680  MEMB      76              0.0000000000
      9347        76  DOPC      C28           -22.3931094984      -25.7945799540        6.3008292266  MEMB      76              0.0000000000
      9348        76  DOPC      H8R           -22.9931317209      -26.5831917852        6.8032086057  MEMB      76              0.0000000000
      9349        76  DOPC      H8S           -21.7819732203      -26.1762795048        5.4551703035  MEMB      76              0.0000000000
      9350        76  DOPC      C29           -23.2900737235      -24.6769181999        5.7607926110  MEMB      76              0.0000000000
      9351        76  DOPC      H9R           -22.8760977543      -23.6885793469        5.5121764887  MEMB      76              0.0000000000
      9352        76  DOPC      C210          -24.5803389655      -24.7959899933        5.3596365833  MEMB      76              0.0000000000
      9353        76  DOPC      H10R          -25.0332277627      -23.9735118440        4.7865561809  MEMB      76              0.0000000000
      9354        76  DOPC      C211          -25.3579905790      -26.0566967264        5.4196351345  MEMB      76              0.0000000000
      9355        76  DOPC      H11R          -26.0999608718      -25.8951876917        6.2306321890  MEMB      76              0.0000000000
      9356        76  DOPC      H11S          -24.7856988635      -26.9601037070        5.7207313622  MEMB      76              0.0000000000
      9357        76  DOPC      C212          -26.1011632129      -26.3994651926        4.1015402609  MEMB      76              0.0000000000
      9358        76  DOPC      H12R          -26.4457926154      -25.4245550623        3.6952126188  MEMB      76              0.0000000000
      9359        76  DOPC      H12S          -26.9074289952      -27.1304479852        4.3249697588  MEMB      76              0.0000000000
      9360        76  DOPC      C213          -25.0882343636      -26.9206318334        3.0963439070  MEMB      76              0.0000000000
      9361        76  DOPC      H13R          -24.4934075898      -27.6421910649        3.6962226704  MEMB      76              0.0000000000
      9362        76  DOPC      H13S          -24.4645182157      -26.0185680623        2.9186360516  MEMB      76              0.0000000000
      9363        76  DOPC      C214          -25.6036141532      -27.5263444665        1.7642375698  MEMB      76              0.0000000000
      9364        76  DOPC      H14R          -26.2210858729      -28.3981040325        2.0693359094  MEMB      76              0.0000000000
      9365        76  DOPC      H14S          -24.7520619593      -27.8628731968        1.1350096878  MEMB      76              0.0000000000
      9366        76  DOPC      C215          -26.4088900254      -26.5476013418        1.0250383402  MEMB      76              0.0000000000
      9367        76  DOPC      H15R          -25.7661757128      -25.6607142558        0.8388375423  MEMB      76              0.0000000000
      9368        76  DOPC      H15S          -27.3045256567      -26.1547017194        1.5520934948  MEMB      76              0.0000000000
      9369        76  DOPC      C216          -26.8546761695      -26.9596903844       -0.3834433994  MEMB      76              0.0000000000
      9370        76  DOPC      H16R          -25.9444699001      -27.3738512936       -0.8675049931  MEMB      76              0.0000000000
      9371        76  DOPC      H16S          -27.1101029384      -26.1116999021       -1.0542565960  MEMB      76              0.0000000000
      9372        76  DOPC      C217          -27.9712656041      -27.9926087399       -0.3468990127  MEMB      76              0.0000000000
      9373        76  DOPC      H17R          -28.8364718678      -27.5809606549        0.2154940657  MEMB      76              0.0000000000
      9374        76  DOPC      H17S          -27.5445763940      -28.8315134157        0.2434367642  MEMB      76              0.0000000000
      9375        76  DOPC      C218          -28.4946655548      -28.4178199459       -1.8303944408  MEMB      76              0.0000000000
      9376        76  DOPC      H18R          -27.7208611548      -29.0871137530       -2.2635138165  MEMB      76              0.0000000000
      9377        76  DOPC      H18S          -28.6324623233      -27.5308973313       -2.4851462095  MEMB      76              0.0000000000
      9378        76  DOPC      H18T          -29.4531233588      -28.9758708175       -1.8956522137  MEMB      76              0.0000000000
      9379        76  DOPC      C33           -26.9328386433      -28.2257658344       11.6490100862  MEMB      76              0.0000000000
      9380        76  DOPC      H3X           -26.0016669791      -27.6643417877       11.4208799222  MEMB      76              0.0000000000
      9381        76  DOPC      H3Y           -27.6037881262      -27.4084978208       11.9899222319  MEMB      76              0.0000000000
      9382        76  DOPC      C34           -27.4521681163      -28.8378125974       10.3897807480  MEMB      76              0.0000000000
      9383        76  DOPC      H4X           -28.5163021609      -29.0992158296       10.5731067216  MEMB      76              0.0000000000
      9384        76  DOPC      H4Y           -26.8745485908      -29.7681815319       10.2024566011  MEMB      76              0.0000000000
      9385        76  DOPC      C35           -27.3685017494      -28.0158451322        9.0908203926  MEMB      76              0.0000000000
      9386        76  DOPC      H5X           -26.3005754573      -27.9171781387        8.8007884383  MEMB      76              0.0000000000
      9387        76  DOPC      H5Y           -27.8471158587      -27.0297006077        9.2718411964  MEMB      76              0.0000000000
      9388        76  DOPC      C36           -28.1661770571      -28.5689018824        7.8137759895  MEMB      76              0.0000000000
      9389        76  DOPC      H6X           -29.2046746487      -28.8781552588        8.0591462648  MEMB      76              0.0000000000
      9390        76  DOPC      H6Y           -28.4225599957      -27.6471134315        7.2490679910  MEMB      76              0.0000000000
      9391        76  DOPC      C37           -27.2811250574      -29.5746889092        7.1080406420  MEMB      76              0.0000000000
      9392        76  DOPC      H7X           -26.2997178100      -29.0683235862        7.2295116301  MEMB      76              0.0000000000
      9393        76  DOPC      H7Y           -27.1975991738      -30.5593417783        7.6157843535  MEMB      76              0.0000000000
      9394        76  DOPC      C38           -27.8060167840      -29.7978901214        5.7004785127  MEMB      76              0.0000000000
      9395        76  DOPC      H8X           -27.0564875599      -30.2250308564        5.0004225735  MEMB      76              0.0000000000
      9396        76  DOPC      H8Y           -27.9584392805      -28.7493420723        5.3663599160  MEMB      76              0.0000000000
      9397        76  DOPC      C39           -29.0792976669      -30.4279755022        5.4966894698  MEMB      76              0.0000000000
      9398        76  DOPC      H9X           -29.9410141032      -30.0502461428        6.0665708440  MEMB      76              0.0000000000
      9399        76  DOPC      C310          -29.3028744154      -31.5618589554        4.7867860077  MEMB      76              0.0000000000
      9400        76  DOPC      H10X          -30.3530715297      -31.8609525546        4.6540115582  MEMB      76              0.0000000000
      9401        76  DOPC      C311          -28.3472376463      -32.4741161876        4.0101404828  MEMB      76              0.0000000000
      9402        76  DOPC      H11X          -28.7743741968      -33.4974377563        3.9416747804  MEMB      76              0.0000000000
      9403        76  DOPC      H11Y          -27.3233960239      -32.5034059703        4.4405025190  MEMB      76              0.0000000000
      9404        76  DOPC      C312          -28.2694479867      -32.0686515352        2.5248408201  MEMB      76              0.0000000000
      9405        76  DOPC      H12X          -27.8439920918      -31.0474751839        2.4223356983  MEMB      76              0.0000000000
      9406        76  DOPC      H12Y          -29.2468435417      -32.0261733250        1.9983286577  MEMB      76              0.0000000000
      9407        76  DOPC      C313          -27.3208454132      -32.8949405639        1.6452284116  MEMB      76              0.0000000000
      9408        76  DOPC      H13X          -27.6184897563      -33.9584545222        1.7663347015  MEMB      76              0.0000000000
      9409        76  DOPC      H13Y          -27.2854988500      -32.5295937377        0.5966136823  MEMB      76              0.0000000000
      9410        76  DOPC      C314          -25.8567914019      -32.8404427195        2.1667484108  MEMB      76              0.0000000000
      9411        76  DOPC      H14X          -25.7766666201      -32.7797702277        3.2731930016  MEMB      76              0.0000000000
      9412        76  DOPC      H14Y          -25.2534973596      -33.6543199452        1.7107214282  MEMB      76              0.0000000000
      9413        76  DOPC      C315          -25.1618946650      -31.4536414121        1.8507067115  MEMB      76              0.0000000000
      9414        76  DOPC      H15X          -24.2583370866      -31.4330795812        2.4968348379  MEMB      76              0.0000000000
      9415        76  DOPC      H15Y          -25.8489427641      -30.6408528831        2.1695506830  MEMB      76              0.0000000000
      9416        76  DOPC      C316          -24.8315702882      -31.1933978898        0.3555583200  MEMB      76              0.0000000000
      9417        76  DOPC      H16X          -25.8066406883      -31.3195027005       -0.1617969938  MEMB      76              0.0000000000
      9418        76  DOPC      H16Y          -24.4138293391      -30.1810722641        0.1684475566  MEMB      76              0.0000000000
      9419        76  DOPC      C317          -23.9033143471      -32.1918497012       -0.2562625298  MEMB      76              0.0000000000
      9420        76  DOPC      H17X          -24.3752973789      -33.1965534917       -0.2101839926  MEMB      76              0.0000000000
      9421        76  DOPC      H17Y          -23.9591459920      -32.0765766270       -1.3598553119  MEMB      76              0.0000000000
      9422        76  DOPC      C318          -22.5359418024      -32.1872583249        0.4707345217  MEMB      76              0.0000000000
      9423        76  DOPC      H18X          -22.5557629891      -32.8306864363        1.3762341134  MEMB      76              0.0000000000
      9424        76  DOPC      H18Y          -21.7311932241      -32.6005156486       -0.1741832638  MEMB      76              0.0000000000
      9425        76  DOPC      H18Z          -22.2353429155      -31.1695003419        0.7995677316  MEMB      76              0.0000000000
      9426        77  DOPC      N              23.3586760516      -30.8272991787       21.0853209355  MEMB      77              0.0000000000
      9427        77  DOPC      C12            23.3683148393      -32.0886196409       20.2144724042  MEMB      77              0.0000000000
      9428        77  DOPC      H12A           22.4438077982      -32.6297002147       20.3520168372  MEMB      77              0.0000000000
      9429        77  DOPC      H12B           24.1566038010      -32.7401159318       20.5616796463  MEMB      77              0.0000000000
      9430        77  DOPC      C13            24.4464498358      -29.9247172620       20.5794304327  MEMB      77              0.0000000000
      9431        77  DOPC      H13A           25.4059887104      -30.4129689447       20.6648441352  MEMB      77              0.0000000000
      9432        77  DOPC      H13B           24.2257302415      -29.7108405028       19.5440852997  MEMB      77              0.0000000000
      9433        77  DOPC      H13C           24.4276611909      -28.9777037416       21.0982875249  MEMB      77              0.0000000000
      9434        77  DOPC      C14            23.7159546026      -31.1131374215       22.4987138339  MEMB      77              0.0000000000
      9435        77  DOPC      H14A           24.7286045747      -31.4861665991       22.4564121300  MEMB      77              0.0000000000
      9436        77  DOPC      H14B           23.6296198904      -30.2759257129       23.1754874743  MEMB      77              0.0000000000
      9437        77  DOPC      H14C           23.1094957843      -31.8980631900       22.9259135977  MEMB      77              0.0000000000
      9438        77  DOPC      C15            21.9891545783      -30.0934610753       21.0755155450  MEMB      77              0.0000000000
      9439        77  DOPC      H15A           21.6356375095      -30.1716583674       20.0580133046  MEMB      77              0.0000000000
      9440        77  DOPC      H15B           22.1047839262      -29.0892896752       21.4558702414  MEMB      77              0.0000000000
      9441        77  DOPC      H15C           21.2933777176      -30.6252809750       21.7075457227  MEMB      77              0.0000000000
      9442        77  DOPC      C11            23.5406617830      -31.9750710073       18.6311038491  MEMB      77              0.0000000000
      9443        77  DOPC      H11A           24.6263584574      -31.7491637004       18.5636525312  MEMB      77              0.0000000000
      9444        77  DOPC      H11B           23.3599360380      -32.9271162025       18.0877171033  MEMB      77              0.0000000000
      9445        77  DOPC      P              21.6998180309      -30.9556903430       16.9815574242  MEMB      77              0.0000000000
      9446        77  DOPC      O13            21.1340505431      -29.6642505408       16.5137438222  MEMB      77              0.0000000000
      9447        77  DOPC      O14            20.7423119391      -31.9299604213       17.5500868854  MEMB      77              0.0000000000
      9448        77  DOPC      O12            22.8393882590      -30.8079010993       18.0542858105  MEMB      77              0.0000000000
      9449        77  DOPC      O11            22.5250786847      -31.6895230468       15.8157690522  MEMB      77              0.0000000000
      9450        77  DOPC      C1             23.8648635869      -31.2997405318       15.3674325961  MEMB      77              0.0000000000
      9451        77  DOPC      HA             24.2963120546      -32.0737108949       14.6972512731  MEMB      77              0.0000000000
      9452        77  DOPC      HB             24.5315002550      -31.2594412634       16.2552909617  MEMB      77              0.0000000000
      9453        77  DOPC      C2             23.9598776835      -29.8438672543       14.7958455933  MEMB      77              0.0000000000
      9454        77  DOPC      HS             23.8703305417      -29.1057916710       15.6214038554  MEMB      77              0.0000000000
      9455        77  DOPC      O21            23.0540370483      -29.5629623156       13.7937534626  MEMB      77              0.0000000000
      9456        77  DOPC      C21            22.4750776946      -28.3559937108       13.6045662397  MEMB      77              0.0000000000
      9457        77  DOPC      O22            22.7866436899      -27.2386745205       14.0624461795  MEMB      77              0.0000000000
      9458        77  DOPC      C22            21.4344896882      -28.5977379621       12.4801965563  MEMB      77              0.0000000000
      9459        77  DOPC      H2R            21.4598518212      -27.6649555957       11.8772082730  MEMB      77              0.0000000000
      9460        77  DOPC      H2S            20.4742208510      -28.6596508229       13.0355089142  MEMB      77              0.0000000000
      9461        77  DOPC      C3             25.3965766479      -29.6573995033       14.2385999777  MEMB      77              0.0000000000
      9462        77  DOPC      HX             25.6900962794      -30.4646350136       13.5339452369  MEMB      77              0.0000000000
      9463        77  DOPC      HY             26.0642413780      -29.8172961788       15.1120860704  MEMB      77              0.0000000000
      9464        77  DOPC      O31            25.5649356733      -28.4149606127       13.6232615091  MEMB      77              0.0000000000
      9465        77  DOPC      C31            25.6656884201      -27.3088122783       14.3173190183  MEMB      77              0.0000000000
      9466        77  DOPC      O32            25.6188580523      -27.2420773063       15.5259516559  MEMB      77              0.0000000000
      9467        77  DOPC      C32            25.8201801745      -26.0970430241       13.3004479085  MEMB      77              0.0000000000
      9468        77  DOPC      H2X            24.8180162734      -25.7252942744       12.9974767819  MEMB      77              0.0000000000
      9469        77  DOPC      H2Y            26.2400854944      -25.1941673903       13.7932110623  MEMB      77              0.0000000000
      9470        77  DOPC      C23            21.6464152331      -29.8962448031       11.6087747170  MEMB      77              0.0000000000
      9471        77  DOPC      H3R            20.7606559987      -30.0764130166       10.9627943734  MEMB      77              0.0000000000
      9472        77  DOPC      H3S            21.6877901085      -30.8360024608       12.1999302318  MEMB      77              0.0000000000
      9473        77  DOPC      C24            22.9290600062      -29.8082968520       10.7836192680  MEMB      77              0.0000000000
      9474        77  DOPC      H4R            23.8809334756      -29.6918005362       11.3445884157  MEMB      77              0.0000000000
      9475        77  DOPC      H4S            22.7919295502      -28.8314796477       10.2724004047  MEMB      77              0.0000000000
      9476        77  DOPC      C25            23.3908510616      -30.9173528097        9.7723558453  MEMB      77              0.0000000000
      9477        77  DOPC      H5R            23.7228015147      -31.8205404340       10.3276777496  MEMB      77              0.0000000000
      9478        77  DOPC      H5S            24.2916658560      -30.5425647341        9.2409545865  MEMB      77              0.0000000000
      9479        77  DOPC      C26            22.3157060598      -31.2922611615        8.7806744556  MEMB      77              0.0000000000
      9480        77  DOPC      H6R            21.3429069758      -31.6341736351        9.1942916969  MEMB      77              0.0000000000
      9481        77  DOPC      H6S            22.8031681183      -32.0795495546        8.1667705310  MEMB      77              0.0000000000
      9482        77  DOPC      C27            21.8580662093      -30.1614034923        7.8001825708  MEMB      77              0.0000000000
      9483        77  DOPC      H7R            21.3408000882      -29.5210129455        8.5462766801  MEMB      77              0.0000000000
      9484        77  DOPC      H7S            20.9974871013      -30.6550167361        7.3001124392  MEMB      77              0.0000000000
      9485        77  DOPC      C28            22.8886417350      -29.3863918874        6.9424233006  MEMB      77              0.0000000000
      9486        77  DOPC      H8R            22.8642780011      -29.9211002239        5.9688659709  MEMB      77              0.0000000000
      9487        77  DOPC      H8S            23.9418802376      -29.5029446688        7.2762276534  MEMB      77              0.0000000000
      9488        77  DOPC      C29            22.5762513390      -27.9451752226        6.8521362286  MEMB      77              0.0000000000
      9489        77  DOPC      H9R            22.7854693039      -27.3888747513        7.7777480787  MEMB      77              0.0000000000
      9490        77  DOPC      C210           22.1228917871      -27.3339833159        5.7996374337  MEMB      77              0.0000000000
      9491        77  DOPC      H10R           22.1834289456      -26.2392483993        5.8884662519  MEMB      77              0.0000000000
      9492        77  DOPC      C211           21.7776011569      -27.9172422213        4.4749380742  MEMB      77              0.0000000000
      9493        77  DOPC      H11R           20.7780302202      -27.5254877902        4.1890930548  MEMB      77              0.0000000000
      9494        77  DOPC      H11S           21.6766623133      -29.0216825503        4.5408473055  MEMB      77              0.0000000000
      9495        77  DOPC      C212           22.7375992399      -27.5667798211        3.3301354186  MEMB      77              0.0000000000
      9496        77  DOPC      H12R           22.8144520779      -26.4587990888        3.3019613039  MEMB      77              0.0000000000
      9497        77  DOPC      H12S           22.2930245510      -27.8421745723        2.3499157840  MEMB      77              0.0000000000
      9498        77  DOPC      C213           24.1737813453      -28.0915974114        3.4750553722  MEMB      77              0.0000000000
      9499        77  DOPC      H13R           24.0138658992      -29.1630352543        3.2285419824  MEMB      77              0.0000000000
      9500        77  DOPC      H13S           24.5307306692      -28.0568531482        4.5265783638  MEMB      77              0.0000000000
      9501        77  DOPC      C214           25.2382806006      -27.5712889787        2.5179148930  MEMB      77              0.0000000000
      9502        77  DOPC      H14R           25.3701953052      -26.4770861646        2.6580569870  MEMB      77              0.0000000000
      9503        77  DOPC      H14S           25.1066060390      -27.7544013942        1.4300482737  MEMB      77              0.0000000000
      9504        77  DOPC      C215           26.6414488646      -28.1646919647        2.6848689573  MEMB      77              0.0000000000
      9505        77  DOPC      H15R           26.6876619161      -29.2438429279        2.4248337043  MEMB      77              0.0000000000
      9506        77  DOPC      H15S           27.0003302111      -28.0044805468        3.7240304498  MEMB      77              0.0000000000
      9507        77  DOPC      C216           27.7430884429      -27.5106008025        1.8409758504  MEMB      77              0.0000000000
      9508        77  DOPC      H16R           27.9677803575      -26.4925278618        2.2248530314  MEMB      77              0.0000000000
      9509        77  DOPC      H16S           27.2886035834      -27.3721300375        0.8366895070  MEMB      77              0.0000000000
      9510        77  DOPC      C217           28.9587755065      -28.4567396329        1.7334474816  MEMB      77              0.0000000000
      9511        77  DOPC      H17R           28.8138326454      -29.2053862228        0.9254627194  MEMB      77              0.0000000000
      9512        77  DOPC      H17S           29.1011712168      -29.0114535838        2.6854657456  MEMB      77              0.0000000000
      9513        77  DOPC      C218           30.2206708533      -27.5589515734        1.6618522313  MEMB      77              0.0000000000
      9514        77  DOPC      H18R           31.1677738708      -28.0470416890        1.3470735386  MEMB      77              0.0000000000
      9515        77  DOPC      H18S           30.3917356690      -26.9177215919        2.5528532374  MEMB      77              0.0000000000
      9516        77  DOPC      H18T           30.0420979396      -26.8260036473        0.8462417608  MEMB      77              0.0000000000
      9517        77  DOPC      C33            26.5385870334      -26.3599552077       11.9067000210  MEMB      77              0.0000000000
      9518        77  DOPC      H3X            27.4166504448      -26.9868628214       12.1718650307  MEMB      77              0.0000000000
      9519        77  DOPC      H3Y            26.9702885328      -25.3896961984       11.5802763124  MEMB      77              0.0000000000
      9520        77  DOPC      C34            25.6604610320      -26.7842335996       10.8335123288  MEMB      77              0.0000000000
      9521        77  DOPC      H4X            24.9583347039      -25.9552454010       10.6008791887  MEMB      77              0.0000000000
      9522        77  DOPC      H4Y            24.9663599370      -27.6039246387       11.1175045878  MEMB      77              0.0000000000
      9523        77  DOPC      C35            26.4699026456      -27.1699568305        9.5629753460  MEMB      77              0.0000000000
      9524        77  DOPC      H5X            27.1353753883      -26.3460116448        9.2274436509  MEMB      77              0.0000000000
      9525        77  DOPC      H5Y            25.7616809713      -27.2782214646        8.7138460026  MEMB      77              0.0000000000
      9526        77  DOPC      C36            27.1106927295      -28.5997202600        9.6041698292  MEMB      77              0.0000000000
      9527        77  DOPC      H6X            27.9087531739      -28.4643006810       10.3651438796  MEMB      77              0.0000000000
      9528        77  DOPC      H6Y            26.3786771348      -29.3832195908        9.8950357395  MEMB      77              0.0000000000
      9529        77  DOPC      C37            27.7194127832      -29.0554950011        8.2106918755  MEMB      77              0.0000000000
      9530        77  DOPC      H7X            28.2787236492      -28.2656439362        7.6651395162  MEMB      77              0.0000000000
      9531        77  DOPC      H7Y            28.3403783353      -29.9406919306        8.4659354761  MEMB      77              0.0000000000
      9532        77  DOPC      C38            26.6335634677      -29.5664586863        7.1939313212  MEMB      77              0.0000000000
      9533        77  DOPC      H8X            26.0592596337      -28.7360142522        6.7304028982  MEMB      77              0.0000000000
      9534        77  DOPC      H8Y            25.9483190363      -30.2508422997        7.7383390125  MEMB      77              0.0000000000
      9535        77  DOPC      C39            27.2670081088      -30.3514410356        6.0965640465  MEMB      77              0.0000000000
      9536        77  DOPC      H9X            28.3484853869      -30.1672538298        6.0160567524  MEMB      77              0.0000000000
      9537        77  DOPC      C310           26.7373723246      -31.3715279098        5.4195501887  MEMB      77              0.0000000000
      9538        77  DOPC      H10X           27.3899573743      -31.7151226354        4.6034164832  MEMB      77              0.0000000000
      9539        77  DOPC      C311           25.3134544606      -31.9229904026        5.5017736189  MEMB      77              0.0000000000
      9540        77  DOPC      H11X           24.7300216287      -31.1079007744        5.0226534542  MEMB      77              0.0000000000
      9541        77  DOPC      H11Y           24.9893673935      -32.1636611401        6.5368422488  MEMB      77              0.0000000000
      9542        77  DOPC      C312           25.1598706101      -33.2548081727        4.6890288926  MEMB      77              0.0000000000
      9543        77  DOPC      H12X           25.9666725161      -33.9396249701        5.0272854975  MEMB      77              0.0000000000
      9544        77  DOPC      H12Y           25.3128594751      -32.8477520550        3.6666682457  MEMB      77              0.0000000000
      9545        77  DOPC      C313           23.7768915108      -33.8249052089        4.9166230798  MEMB      77              0.0000000000
      9546        77  DOPC      H13X           23.5808242915      -34.6809926365        4.2361875512  MEMB      77              0.0000000000
      9547        77  DOPC      H13Y           23.8367661685      -34.2077255704        5.9578654800  MEMB      77              0.0000000000
      9548        77  DOPC      C314           22.5871643647      -32.8737563469        4.5293706936  MEMB      77              0.0000000000
      9549        77  DOPC      H14X           21.6135564072      -33.3696876727        4.7305185661  MEMB      77              0.0000000000
      9550        77  DOPC      H14Y           22.5252071252      -32.0266155784        5.2454958476  MEMB      77              0.0000000000
      9551        77  DOPC      C315           22.4142869463      -32.5123436403        3.0546478924  MEMB      77              0.0000000000
      9552        77  DOPC      H15X           22.7805687691      -33.3672301974        2.4469243254  MEMB      77              0.0000000000
      9553        77  DOPC      H15Y           23.0214908453      -31.6166776267        2.8028406761  MEMB      77              0.0000000000
      9554        77  DOPC      C316           21.0421087612      -32.0588600133        2.5778080629  MEMB      77              0.0000000000
      9555        77  DOPC      H16X           20.2921450885      -32.8263847093        2.8655254306  MEMB      77              0.0000000000
      9556        77  DOPC      H16Y           20.7355640562      -31.0963886704        3.0404103203  MEMB      77              0.0000000000
      9557        77  DOPC      C317           20.9117646122      -31.8751629295        1.0195115044  MEMB      77              0.0000000000
      9558        77  DOPC      H17X           21.1046030012      -32.8358584427        0.4958713900  MEMB      77              0.0000000000
      9559        77  DOPC      H17Y           19.8735743109      -31.6187010058        0.7183314054  MEMB      77              0.0000000000
      9560        77  DOPC      C318           21.7593712631      -30.6736859002        0.4492289811  MEMB      77              0.0000000000
      9561        77  DOPC      H18X           21.3329354635      -29.6863462525        0.7278580690  MEMB      77              0.0000000000
      9562        77  DOPC      H18Y           22.7998203312      -30.7881434604        0.8216351456  MEMB      77              0.0000000000
      9563        77  DOPC      H18Z           21.8034135739      -30.6486918202       -0.6606160480  MEMB      77              0.0000000000
      9564        78  DOPE      N              34.3267547332       10.2412319793       18.2134746751  MEMB      78              0.0000000000
      9565        78  DOPE      HN1            33.3006807877       10.1408280656       18.0767576675  MEMB      78              0.0000000000
      9566        78  DOPE      HN2            34.8088586599       10.1199647126       17.2999813888  MEMB      78              0.0000000000
      9567        78  DOPE      HN3            34.6447548351        9.3920890357       18.7228196528  MEMB      78              0.0000000000
      9568        78  DOPE      C12            34.6051454772       11.6399270232       18.8136970971  MEMB      78              0.0000000000
      9569        78  DOPE      H12A           33.7814468326       11.6498587422       19.5591787123  MEMB      78              0.0000000000
      9570        78  DOPE      H12B           34.5236596697       12.4045551319       18.0118087267  MEMB      78              0.0000000000
      9571        78  DOPE      C11            35.8936769322       11.7137750710       19.5567827987  MEMB      78              0.0000000000
      9572        78  DOPE      H11A           35.6591768137       10.9460151927       20.3248163313  MEMB      78              0.0000000000
      9573        78  DOPE      H11B           35.9582760066       12.7255320781       20.0112008231  MEMB      78              0.0000000000
      9574        78  DOPE      P              37.9436659097       10.1390133990       19.1703850466  MEMB      78              0.0000000000
      9575        78  DOPE      O13            37.0015429865        9.0000977673       19.3849034077  MEMB      78              0.0000000000
      9576        78  DOPE      O14            38.8587557578       10.3501548622       20.2430648530  MEMB      78              0.0000000000
      9577        78  DOPE      O11            38.6791235488        9.9529170885       17.7431351859  MEMB      78              0.0000000000
      9578        78  DOPE      O12            37.0362818654       11.4585080722       18.8745569744  MEMB      78              0.0000000000
      9579        78  DOPE      C1             37.8257598915        9.4003918552       16.7034180340  MEMB      78              0.0000000000
      9580        78  DOPE      HA             36.7863737014        9.7909382992       16.7417675601  MEMB      78              0.0000000000
      9581        78  DOPE      HB             37.7999682923        8.2949940307       16.8118228938  MEMB      78              0.0000000000
      9582        78  DOPE      C2             38.3410692212        9.9091627677       15.3385896968  MEMB      78              0.0000000000
      9583        78  DOPE      HS             39.3831108640        9.5300731856       15.2695856684  MEMB      78              0.0000000000
      9584        78  DOPE      O21            38.4087282070       11.3177554573       15.2557880033  MEMB      78              0.0000000000
      9585        78  DOPE      C21            38.9446615927       11.8989803343       14.1694109660  MEMB      78              0.0000000000
      9586        78  DOPE      O22            39.5864948213       11.3836365093       13.3094140202  MEMB      78              0.0000000000
      9587        78  DOPE      C22            38.4509809482       13.3651709681       14.1734845374  MEMB      78              0.0000000000
      9588        78  DOPE      H2R            39.2578529858       14.0499043645       13.8352262717  MEMB      78              0.0000000000
      9589        78  DOPE      H2S            38.1315432893       13.5845949565       15.2147019760  MEMB      78              0.0000000000
      9590        78  DOPE      C3             37.4761005938        9.3491168054       14.1478693158  MEMB      78              0.0000000000
      9591        78  DOPE      HX             37.4418558317        8.2448627227       14.2652211844  MEMB      78              0.0000000000
      9592        78  DOPE      HY             37.8118320416        9.6790469077       13.1415137756  MEMB      78              0.0000000000
      9593        78  DOPE      O31            36.1755619212        9.8433246469       14.2925748905  MEMB      78              0.0000000000
      9594        78  DOPE      C31            35.1534079933        9.0767646287       13.9157178177  MEMB      78              0.0000000000
      9595        78  DOPE      O32            35.1953550809        7.9555828180       13.5321252438  MEMB      78              0.0000000000
      9596        78  DOPE      C32            33.8491333587        9.9678582806       13.9771108073  MEMB      78              0.0000000000
      9597        78  DOPE      H2X            33.0370185469        9.3072186311       14.3490599839  MEMB      78              0.0000000000
      9598        78  DOPE      H2Y            33.9960646247       10.8129461151       14.6831974191  MEMB      78              0.0000000000
      9599        78  DOPE      C23            37.3223519236       13.4680420326       13.1978026577  MEMB      78              0.0000000000
      9600        78  DOPE      H3R            36.5893331256       14.1259210150       13.7118063151  MEMB      78              0.0000000000
      9601        78  DOPE      H3S            36.7411114560       12.5381951351       13.0192939177  MEMB      78              0.0000000000
      9602        78  DOPE      C24            37.6305332581       14.1114544213       11.8226961854  MEMB      78              0.0000000000
      9603        78  DOPE      H4R            38.1773022349       15.0719298015       11.9360617762  MEMB      78              0.0000000000
      9604        78  DOPE      H4S            36.6858976911       14.2303849176       11.2501222249  MEMB      78              0.0000000000
      9605        78  DOPE      C25            38.5187536894       13.2669967381       10.9512356430  MEMB      78              0.0000000000
      9606        78  DOPE      H5R            37.9770890760       12.3625431550       10.6006871147  MEMB      78              0.0000000000
      9607        78  DOPE      H5S            39.4073361949       13.0271594217       11.5735057228  MEMB      78              0.0000000000
      9608        78  DOPE      C26            39.0057127176       14.0088931499        9.6186185094  MEMB      78              0.0000000000
      9609        78  DOPE      H6R            39.9458968595       13.5071025785        9.3046423993  MEMB      78              0.0000000000
      9610        78  DOPE      H6S            39.2397250285       15.0819681777        9.7861581762  MEMB      78              0.0000000000
      9611        78  DOPE      C27            37.9589496435       14.0593393688        8.4877876222  MEMB      78              0.0000000000
      9612        78  DOPE      H7R            37.0774620574       14.4020833020        9.0707346296  MEMB      78              0.0000000000
      9613        78  DOPE      H7S            37.8436839868       13.0478339566        8.0429374627  MEMB      78              0.0000000000
      9614        78  DOPE      C28            38.0297945484       15.1088304329        7.3567840455  MEMB      78              0.0000000000
      9615        78  DOPE      H8R            38.0089026199       16.1657225413        7.6986373741  MEMB      78              0.0000000000
      9616        78  DOPE      H8S            37.0841427437       14.9754581094        6.7890911350  MEMB      78              0.0000000000
      9617        78  DOPE      C29            39.3274384720       14.9468106802        6.5958631877  MEMB      78              0.0000000000
      9618        78  DOPE      H9R            40.1924006388       15.2030170537        7.2253065570  MEMB      78              0.0000000000
      9619        78  DOPE      C210           39.4304980896       14.7037962538        5.2434834286  MEMB      78              0.0000000000
      9620        78  DOPE      H10R           40.4133501486       14.5471285411        4.7750206328  MEMB      78              0.0000000000
      9621        78  DOPE      C211           38.3160289316       14.5615986005        4.1618140522  MEMB      78              0.0000000000
      9622        78  DOPE      H11R           37.2784045950       14.6491154339        4.5491095353  MEMB      78              0.0000000000
      9623        78  DOPE      H11S           38.4997976834       13.5503584660        3.7399805851  MEMB      78              0.0000000000
      9624        78  DOPE      C212           38.4300388948       15.6752047430        3.0998995775  MEMB      78              0.0000000000
      9625        78  DOPE      H12R           39.3261227622       15.4541887156        2.4814273843  MEMB      78              0.0000000000
      9626        78  DOPE      H12S           38.5592882040       16.6974766046        3.5153214489  MEMB      78              0.0000000000
      9627        78  DOPE      C213           37.2640954029       15.7508120092        2.0749899690  MEMB      78              0.0000000000
      9628        78  DOPE      H13R           37.3400369493       16.7951023303        1.7034927188  MEMB      78              0.0000000000
      9629        78  DOPE      H13S           36.3474126124       15.6414418801        2.6930941452  MEMB      78              0.0000000000
      9630        78  DOPE      C214           37.2963589402       14.4869319010        1.0991693785  MEMB      78              0.0000000000
      9631        78  DOPE      H14R           37.0679725989       13.5051562175        1.5663695158  MEMB      78              0.0000000000
      9632        78  DOPE      H14S           38.3547061802       14.3696104770        0.7822187421  MEMB      78              0.0000000000
      9633        78  DOPE      C215           36.3954036351       14.5916391655       -0.0786751262  MEMB      78              0.0000000000
      9634        78  DOPE      H15R           36.3909792659       13.6188437303       -0.6153041607  MEMB      78              0.0000000000
      9635        78  DOPE      H15S           36.7174261015       15.4048440411       -0.7637437778  MEMB      78              0.0000000000
      9636        78  DOPE      C216           34.9085486993       14.8926770109        0.2950018679  MEMB      78              0.0000000000
      9637        78  DOPE      H16R           34.8100728999       15.9982487337        0.3433204843  MEMB      78              0.0000000000
      9638        78  DOPE      H16S           34.6990985003       14.4522535262        1.2932402261  MEMB      78              0.0000000000
      9639        78  DOPE      C217           33.9114552026       14.3728424115       -0.7657471150  MEMB      78              0.0000000000
      9640        78  DOPE      H17R           32.8880187952       14.4687173088       -0.3441940648  MEMB      78              0.0000000000
      9641        78  DOPE      H17S           34.1394666373       13.2884184203       -0.8454731375  MEMB      78              0.0000000000
      9642        78  DOPE      C218           33.9506938567       15.0601721279       -2.2049113141  MEMB      78              0.0000000000
      9643        78  DOPE      H18R           34.9922666465       15.1260046881       -2.5858494820  MEMB      78              0.0000000000
      9644        78  DOPE      H18S           33.5866745064       16.0910769018       -2.0073102265  MEMB      78              0.0000000000
      9645        78  DOPE      H18T           33.2719915947       14.5248235937       -2.9028270747  MEMB      78              0.0000000000
      9646        78  DOPE      C33            33.3166578684       10.5080660988       12.6679404335  MEMB      78              0.0000000000
      9647        78  DOPE      H3X            32.3694414827       11.0629048800       12.8389840136  MEMB      78              0.0000000000
      9648        78  DOPE      H3Y            33.2240615586        9.6198384412       12.0070329290  MEMB      78              0.0000000000
      9649        78  DOPE      C34            34.1880702118       11.3765958704       11.8005044032  MEMB      78              0.0000000000
      9650        78  DOPE      H4X            34.4268728729       12.3364655348       12.3064139121  MEMB      78              0.0000000000
      9651        78  DOPE      H4Y            35.1332774197       10.8231766596       11.6144087707  MEMB      78              0.0000000000
      9652        78  DOPE      C35            33.4452063688       11.5752315739       10.4579298504  MEMB      78              0.0000000000
      9653        78  DOPE      H5X            32.4826087155       12.0474205475       10.7490733948  MEMB      78              0.0000000000
      9654        78  DOPE      H5Y            33.2328006603       10.5858963884        9.9992136826  MEMB      78              0.0000000000
      9655        78  DOPE      C36            34.1248124037       12.3859927619        9.4102363745  MEMB      78              0.0000000000
      9656        78  DOPE      H6X            34.4249841954       13.3414107102        9.8912711267  MEMB      78              0.0000000000
      9657        78  DOPE      H6Y            33.3315684025       12.5699681757        8.6544339558  MEMB      78              0.0000000000
      9658        78  DOPE      C37            35.2945332003       11.6377822925        8.7374664525  MEMB      78              0.0000000000
      9659        78  DOPE      H7X            35.6966917949       12.3823931939        8.0176434442  MEMB      78              0.0000000000
      9660        78  DOPE      H7Y            36.0303668316       11.6030740268        9.5691304843  MEMB      78              0.0000000000
      9661        78  DOPE      C38            35.0709123241       10.2387795597        8.1138833838  MEMB      78              0.0000000000
      9662        78  DOPE      H8X            35.1542454599        9.4784235193        8.9196354132  MEMB      78              0.0000000000
      9663        78  DOPE      H8Y            35.9442622595       10.0505421761        7.4534692936  MEMB      78              0.0000000000
      9664        78  DOPE      C39            33.8474324754       10.0285548739        7.2593193108  MEMB      78              0.0000000000
      9665        78  DOPE      H9X            33.0522655230        9.3762348071        7.6494328636  MEMB      78              0.0000000000
      9666        78  DOPE      C310           33.7542263326       10.6668805099        6.1248942041  MEMB      78              0.0000000000
      9667        78  DOPE      H10X           32.8247758341       10.5456257134        5.5492046290  MEMB      78              0.0000000000
      9668        78  DOPE      C311           34.7040502872       11.5622071374        5.4089152503  MEMB      78              0.0000000000
      9669        78  DOPE      H11X           34.1635295733       12.4240748651        4.9624379736  MEMB      78              0.0000000000
      9670        78  DOPE      H11Y           35.2949986133       12.1741804694        6.1234713928  MEMB      78              0.0000000000
      9671        78  DOPE      C312           35.7206543206       11.1209259523        4.2915080960  MEMB      78              0.0000000000
      9672        78  DOPE      H12X           36.2890821947       10.1851229798        4.4798798986  MEMB      78              0.0000000000
      9673        78  DOPE      H12Y           36.4000577295       11.9877403878        4.1453430392  MEMB      78              0.0000000000
      9674        78  DOPE      C313           35.0041380745       10.8401786268        2.9409526017  MEMB      78              0.0000000000
      9675        78  DOPE      H13X           34.2161181885       10.0588384665        2.9943681934  MEMB      78              0.0000000000
      9676        78  DOPE      H13Y           34.4344841211       11.7666318237        2.7140137230  MEMB      78              0.0000000000
      9677        78  DOPE      C314           35.9649286379       10.7260497940        1.7288679635  MEMB      78              0.0000000000
      9678        78  DOPE      H14X           36.8032426908       11.4531058750        1.7830891452  MEMB      78              0.0000000000
      9679        78  DOPE      H14Y           35.4403580991       10.9677785573        0.7798070889  MEMB      78              0.0000000000
      9680        78  DOPE      C315           36.5330380175        9.2791226932        1.5509951330  MEMB      78              0.0000000000
      9681        78  DOPE      H15X           37.0170111686        9.1914196157        0.5548027899  MEMB      78              0.0000000000
      9682        78  DOPE      H15Y           35.8041384503        8.4412782892        1.5833009400  MEMB      78              0.0000000000
      9683        78  DOPE      C316           37.5896638013        8.9461728392        2.5905937665  MEMB      78              0.0000000000
      9684        78  DOPE      H16X           37.9207777017        7.9212362611        2.3182160250  MEMB      78              0.0000000000
      9685        78  DOPE      H16Y           37.1734989207        8.7581953887        3.6034070705  MEMB      78              0.0000000000
      9686        78  DOPE      C317           38.7686817213        9.8559306319        2.8121576124  MEMB      78              0.0000000000
      9687        78  DOPE      H17X           38.4026988098       10.7519884688        3.3575542768  MEMB      78              0.0000000000
      9688        78  DOPE      H17Y           39.4983426380        9.3133317234        3.4505169260  MEMB      78              0.0000000000
      9689        78  DOPE      C318           39.4430254256       10.1932245847        1.4895550603  MEMB      78              0.0000000000
      9690        78  DOPE      H18X           40.3317734922       10.8091104509        1.7447667872  MEMB      78              0.0000000000
      9691        78  DOPE      H18Y           39.6823257046        9.2643853420        0.9289188837  MEMB      78              0.0000000000
      9692        78  DOPE      H18Z           38.8012011688       10.7953869777        0.8114823033  MEMB      78              0.0000000000
      9693        79  DOPE      N               8.3657782574       36.9572244691       22.0723872625  MEMB      79              0.0000000000
      9694        79  DOPE      HN1             8.1589375902       36.6233317377       23.0353682236  MEMB      79              0.0000000000
      9695        79  DOPE      HN2             9.2943813164       37.4255104033       22.0702307927  MEMB      79              0.0000000000
      9696        79  DOPE      HN3             7.5899350773       37.5944008029       21.8009584060  MEMB      79              0.0000000000
      9697        79  DOPE      C12             8.5507698201       35.7624609988       21.1243635047  MEMB      79              0.0000000000
      9698        79  DOPE      H12A            7.6015839052       35.1870265100       21.0770115667  MEMB      79              0.0000000000
      9699        79  DOPE      H12B            9.3129269342       35.1617956602       21.6653244459  MEMB      79              0.0000000000
      9700        79  DOPE      C11             8.9950899817       36.1918302647       19.7565762948  MEMB      79              0.0000000000
      9701        79  DOPE      H11A            9.1884047082       35.2561086013       19.1896764031  MEMB      79              0.0000000000
      9702        79  DOPE      H11B            9.9446726377       36.7503560438       19.9003217566  MEMB      79              0.0000000000
      9703        79  DOPE      P               8.3037190235       37.7203393256       17.7624327132  MEMB      79              0.0000000000
      9704        79  DOPE      O13             7.2564758157       38.7264344463       17.4711500120  MEMB      79              0.0000000000
      9705        79  DOPE      O14             8.5477207703       36.7758301531       16.6982287956  MEMB      79              0.0000000000
      9706        79  DOPE      O11             9.7428916234       38.5438785010       18.0373323378  MEMB      79              0.0000000000
      9707        79  DOPE      O12             8.0077317909       36.9581026558       19.0775290793  MEMB      79              0.0000000000
      9708        79  DOPE      C1              9.5775665945       39.5921932001       18.9927878318  MEMB      79              0.0000000000
      9709        79  DOPE      HA             10.0029701420       39.2384009860       19.9562107901  MEMB      79              0.0000000000
      9710        79  DOPE      HB              8.5286121825       39.8345814886       19.2671302161  MEMB      79              0.0000000000
      9711        79  DOPE      C2             10.3027069042       40.9129676524       18.6152326794  MEMB      79              0.0000000000
      9712        79  DOPE      HS             10.2334339990       41.7217097619       19.3738223218  MEMB      79              0.0000000000
      9713        79  DOPE      O21             9.6657187569       41.3765141658       17.3725470306  MEMB      79              0.0000000000
      9714        79  DOPE      C21             8.4722673488       42.0218719875       17.3886810168  MEMB      79              0.0000000000
      9715        79  DOPE      O22             7.7331596313       42.1257508406       18.3644766507  MEMB      79              0.0000000000
      9716        79  DOPE      C22             8.0995270580       42.3909395215       15.9458874394  MEMB      79              0.0000000000
      9717        79  DOPE      H2R             9.0372634263       42.6440590884       15.4065338230  MEMB      79              0.0000000000
      9718        79  DOPE      H2S             7.4921083556       43.3211748959       15.9509270210  MEMB      79              0.0000000000
      9719        79  DOPE      C3             11.7790758153       40.8069154916       18.4125256885  MEMB      79              0.0000000000
      9720        79  DOPE      HX             12.3236882491       40.5193530122       19.3372019971  MEMB      79              0.0000000000
      9721        79  DOPE      HY             12.2010879944       41.8076408494       18.1784832706  MEMB      79              0.0000000000
      9722        79  DOPE      O31            12.0608135075       39.7597551989       17.4692168893  MEMB      79              0.0000000000
      9723        79  DOPE      C31            12.3960949847       40.1519772407       16.3206143259  MEMB      79              0.0000000000
      9724        79  DOPE      O32            12.3245537660       41.2983415014       15.8779604903  MEMB      79              0.0000000000
      9725        79  DOPE      C32            13.0456963429       38.9671770879       15.5944285756  MEMB      79              0.0000000000
      9726        79  DOPE      H2X            14.0700545953       39.2385548711       15.2607142490  MEMB      79              0.0000000000
      9727        79  DOPE      H2Y            13.1171824149       38.0884768731       16.2705179285  MEMB      79              0.0000000000
      9728        79  DOPE      C23             7.2650847500       41.3493762953       15.2391144606  MEMB      79              0.0000000000
      9729        79  DOPE      H3R             6.2424693976       41.7641582607       15.3677018425  MEMB      79              0.0000000000
      9730        79  DOPE      H3S             7.2247143241       40.2950346474       15.5870438913  MEMB      79              0.0000000000
      9731        79  DOPE      C24             7.3005810075       41.4498384208       13.7167317902  MEMB      79              0.0000000000
      9732        79  DOPE      H4R             8.2953910331       41.0256616508       13.4622755220  MEMB      79              0.0000000000
      9733        79  DOPE      H4S             7.4139530426       42.5208745814       13.4440612095  MEMB      79              0.0000000000
      9734        79  DOPE      C25             6.1173975822       40.8013506954       12.9295362543  MEMB      79              0.0000000000
      9735        79  DOPE      H5R             5.2558204955       41.4407127238       13.2180187765  MEMB      79              0.0000000000
      9736        79  DOPE      H5S             5.9804291570       39.7873918215       13.3624887448  MEMB      79              0.0000000000
      9737        79  DOPE      C26             6.1496720129       40.6836827529       11.3612278042  MEMB      79              0.0000000000
      9738        79  DOPE      H6R             5.1453678621       40.3159100251       11.0605001053  MEMB      79              0.0000000000
      9739        79  DOPE      H6S             6.8675979493       39.9022671123       11.0321494113  MEMB      79              0.0000000000
      9740        79  DOPE      C27             6.5050335409       41.9222621941       10.6499687128  MEMB      79              0.0000000000
      9741        79  DOPE      H7R             7.6120881680       42.0156560280       10.6553058183  MEMB      79              0.0000000000
      9742        79  DOPE      H7S             6.0287061927       42.7952195178       11.1453257584  MEMB      79              0.0000000000
      9743        79  DOPE      C28             6.2027606902       41.9005701306        9.1029451176  MEMB      79              0.0000000000
      9744        79  DOPE      H8R             6.6798728736       40.9489725860        8.7849093351  MEMB      79              0.0000000000
      9745        79  DOPE      H8S             6.6726078237       42.7546912128        8.5699887969  MEMB      79              0.0000000000
      9746        79  DOPE      C29             4.7209004511       41.8736640072        8.8668406984  MEMB      79              0.0000000000
      9747        79  DOPE      H9R             4.2536933059       42.8199059330        9.1772334221  MEMB      79              0.0000000000
      9748        79  DOPE      C210            4.0188993343       40.9053273940        8.3462349747  MEMB      79              0.0000000000
      9749        79  DOPE      H10R            2.9221553358       40.9761635461        8.3924406767  MEMB      79              0.0000000000
      9750        79  DOPE      C211            4.4822447182       39.5282501209        7.8822734233  MEMB      79              0.0000000000
      9751        79  DOPE      H11R            4.0951534524       38.8458822411        8.6689474973  MEMB      79              0.0000000000
      9752        79  DOPE      H11S            5.5793117383       39.3636576504        7.8216578083  MEMB      79              0.0000000000
      9753        79  DOPE      C212            3.7025100554       38.9229647700        6.6748153872  MEMB      79              0.0000000000
      9754        79  DOPE      H12R            2.5997942872       38.8570578124        6.7931161830  MEMB      79              0.0000000000
      9755        79  DOPE      H12S            4.1233254029       37.9423640445        6.3655288293  MEMB      79              0.0000000000
      9756        79  DOPE      C213            3.8607364797       39.7471950237        5.3791485238  MEMB      79              0.0000000000
      9757        79  DOPE      H13R            3.2727202474       40.6885393819        5.4284363098  MEMB      79              0.0000000000
      9758        79  DOPE      H13S            3.3685531534       39.1408527812        4.5889420855  MEMB      79              0.0000000000
      9759        79  DOPE      C214            5.3488295292       40.0662687977        5.0123313345  MEMB      79              0.0000000000
      9760        79  DOPE      H14R            5.8274434159       39.0706475446        4.8940591982  MEMB      79              0.0000000000
      9761        79  DOPE      H14S            5.8380646005       40.4457465118        5.9348101252  MEMB      79              0.0000000000
      9762        79  DOPE      C215            5.5360928398       40.9253546269        3.7457637955  MEMB      79              0.0000000000
      9763        79  DOPE      H15R            6.6330309503       41.1011380889        3.7579374210  MEMB      79              0.0000000000
      9764        79  DOPE      H15S            5.0808566111       41.9046276704        4.0067340062  MEMB      79              0.0000000000
      9765        79  DOPE      C216            5.0350624258       40.2622557637        2.4097529637  MEMB      79              0.0000000000
      9766        79  DOPE      H16R            4.0427346846       39.7763312719        2.5258735553  MEMB      79              0.0000000000
      9767        79  DOPE      H16S            5.7991947241       39.4909934240        2.1740051140  MEMB      79              0.0000000000
      9768        79  DOPE      C217            4.8955086879       41.3092463867        1.2753362446  MEMB      79              0.0000000000
      9769        79  DOPE      H17R            4.6232640534       40.6493858390        0.4239922409  MEMB      79              0.0000000000
      9770        79  DOPE      H17S            5.9104223011       41.6702762969        1.0034368980  MEMB      79              0.0000000000
      9771        79  DOPE      C218            3.7147422928       42.3299613405        1.4675143454  MEMB      79              0.0000000000
      9772        79  DOPE      H18R            3.7717794416       42.9497493431        2.3878041346  MEMB      79              0.0000000000
      9773        79  DOPE      H18S            2.7510017369       41.7843776046        1.3788381856  MEMB      79              0.0000000000
      9774        79  DOPE      H18T            3.6869961440       42.9608501940        0.5534424612  MEMB      79              0.0000000000
      9775        79  DOPE      C33            12.1460059714       38.5812193126       14.3870378581  MEMB      79              0.0000000000
      9776        79  DOPE      H3X            12.7541383474       37.9760573276       13.6811521729  MEMB      79              0.0000000000
      9777        79  DOPE      H3Y            11.7427764083       39.3835490914       13.7328251831  MEMB      79              0.0000000000
      9778        79  DOPE      C34            10.8631762375       37.7902379872       14.8257243169  MEMB      79              0.0000000000
      9779        79  DOPE      H4X            11.1057174040       36.7846085616       15.2309458627  MEMB      79              0.0000000000
      9780        79  DOPE      H4Y            10.3825233266       38.4288054358       15.5974272786  MEMB      79              0.0000000000
      9781        79  DOPE      C35             9.8484162412       37.8316555839       13.6849401218  MEMB      79              0.0000000000
      9782        79  DOPE      H5X             9.5037598590       38.8436186086       13.3825097233  MEMB      79              0.0000000000
      9783        79  DOPE      H5Y             9.0992221048       37.0757312888       14.0036992738  MEMB      79              0.0000000000
      9784        79  DOPE      C36            10.2596027686       37.0228614860       12.3937682573  MEMB      79              0.0000000000
      9785        79  DOPE      H6X            10.7546372211       36.0873123185       12.7314216325  MEMB      79              0.0000000000
      9786        79  DOPE      H6Y            10.8986180546       37.7312310559       11.8243884922  MEMB      79              0.0000000000
      9787        79  DOPE      C37             9.0231534308       36.7213050031       11.4800948794  MEMB      79              0.0000000000
      9788        79  DOPE      H7X             8.1726557963       36.2247756816       11.9943259196  MEMB      79              0.0000000000
      9789        79  DOPE      H7Y             8.5441614527       37.6613084843       11.1318404564  MEMB      79              0.0000000000
      9790        79  DOPE      C38             9.3139625086       35.8585206402       10.2977831994  MEMB      79              0.0000000000
      9791        79  DOPE      H8X             8.4718413551       35.9670890508        9.5812868250  MEMB      79              0.0000000000
      9792        79  DOPE      H8Y             9.5679846148       34.8414015567       10.6655632064  MEMB      79              0.0000000000
      9793        79  DOPE      C39            10.5140155366       36.3899607714        9.5274319056  MEMB      79              0.0000000000
      9794        79  DOPE      H9X            11.4710567341       35.9387970210        9.8283032531  MEMB      79              0.0000000000
      9795        79  DOPE      C310           10.4583946187       37.3808200985        8.5395271449  MEMB      79              0.0000000000
      9796        79  DOPE      H10X           11.3945890116       37.6403164163        8.0235796094  MEMB      79              0.0000000000
      9797        79  DOPE      C311            9.1629373908       38.1348296592        8.1171334207  MEMB      79              0.0000000000
      9798        79  DOPE      H11X            8.2252801561       37.5885519961        8.3552527463  MEMB      79              0.0000000000
      9799        79  DOPE      H11Y            9.2072399995       39.0407089685        8.7588042117  MEMB      79              0.0000000000
      9800        79  DOPE      C312            9.1584449438       38.4181824540        6.6244512586  MEMB      79              0.0000000000
      9801        79  DOPE      H12X            9.9870657494       39.1301274454        6.4223555561  MEMB      79              0.0000000000
      9802        79  DOPE      H12Y            8.2085977415       38.9355730792        6.3706448925  MEMB      79              0.0000000000
      9803        79  DOPE      C313            9.4322302842       37.2448345286        5.7301226611  MEMB      79              0.0000000000
      9804        79  DOPE      H13X           10.3651144881       36.7260162610        6.0381415112  MEMB      79              0.0000000000
      9805        79  DOPE      H13Y            8.6006521681       36.5217395440        5.8713047858  MEMB      79              0.0000000000
      9806        79  DOPE      C314            9.6342952396       37.7651935283        4.3428027928  MEMB      79              0.0000000000
      9807        79  DOPE      H14X           10.3872380005       38.5662291903        4.5032396475  MEMB      79              0.0000000000
      9808        79  DOPE      H14Y            8.7044901055       38.1205427806        3.8493362632  MEMB      79              0.0000000000
      9809        79  DOPE      C315           10.2557916404       36.8626242503        3.2800953644  MEMB      79              0.0000000000
      9810        79  DOPE      H15X           11.0713226429       36.2652419136        3.7409257002  MEMB      79              0.0000000000
      9811        79  DOPE      H15Y           10.6454629488       37.5733038117        2.5202200223  MEMB      79              0.0000000000
      9812        79  DOPE      C316            9.2350573319       35.9827326762        2.5712399875  MEMB      79              0.0000000000
      9813        79  DOPE      H16X            8.2965322918       36.4443356385        2.1965206105  MEMB      79              0.0000000000
      9814        79  DOPE      H16Y            8.9263745624       35.2265953846        3.3244284904  MEMB      79              0.0000000000
      9815        79  DOPE      C317            9.8075092858       35.2609950520        1.3449723172  MEMB      79              0.0000000000
      9816        79  DOPE      H17X           10.7360950254       34.6638116183        1.4691563048  MEMB      79              0.0000000000
      9817        79  DOPE      H17Y            9.1160784630       34.4280452855        1.0950940223  MEMB      79              0.0000000000
      9818        79  DOPE      C318            9.7792990362       36.0565720985        0.0171970219  MEMB      79              0.0000000000
      9819        79  DOPE      H18X           10.5476535179       36.8589706099        0.0276332310  MEMB      79              0.0000000000
      9820        79  DOPE      H18Y           10.1860518380       35.3454238555       -0.7332302292  MEMB      79              0.0000000000
      9821        79  DOPE      H18Z            8.8656452292       36.6144977911       -0.2799160706  MEMB      79              0.0000000000
      9822        80  23SM      N             -32.5088234105       21.3137351614       27.7085115085  MEMB      80              0.0000000000
      9823        80  23SM      C15           -33.3036291227       20.0762582645       27.9311371468  MEMB      80              0.0000000000
      9824        80  23SM      H15A          -33.8695501910       19.9194202181       27.0247514782  MEMB      80              0.0000000000
      9825        80  23SM      H15B          -33.9306665849       20.1179424899       28.8094802368  MEMB      80              0.0000000000
      9826        80  23SM      H15C          -32.7356878257       19.1578343443       27.9495800218  MEMB      80              0.0000000000
      9827        80  23SM      C14           -33.4259684598       22.4802793935       27.6645715617  MEMB      80              0.0000000000
      9828        80  23SM      H14A          -34.0246629912       22.3778453481       28.5575846981  MEMB      80              0.0000000000
      9829        80  23SM      H14B          -34.1034634088       22.3624906244       26.8317893974  MEMB      80              0.0000000000
      9830        80  23SM      H14C          -32.9257316270       23.4235639127       27.5021602770  MEMB      80              0.0000000000
      9831        80  23SM      C13           -31.5154546653       21.5033577525       28.8552064631  MEMB      80              0.0000000000
      9832        80  23SM      H13A          -31.1296604467       20.5555688400       29.2005454813  MEMB      80              0.0000000000
      9833        80  23SM      H13B          -31.8283322937       21.9879776682       29.7682510683  MEMB      80              0.0000000000
      9834        80  23SM      H13C          -30.6579669801       22.0626972817       28.5113252699  MEMB      80              0.0000000000
      9835        80  23SM      C12           -31.7062685171       21.2518154557       26.3939789145  MEMB      80              0.0000000000
      9836        80  23SM      H12A          -31.1251692521       20.3537749827       26.5431329041  MEMB      80              0.0000000000
      9837        80  23SM      H12B          -31.0895186988       22.1351660355       26.3184060524  MEMB      80              0.0000000000
      9838        80  23SM      C11           -32.5327520371       21.0511455720       25.0497277665  MEMB      80              0.0000000000
      9839        80  23SM      H11A          -31.7831789254       21.0581162329       24.2297202153  MEMB      80              0.0000000000
      9840        80  23SM      H11B          -33.3017455571       21.8131224836       24.8000058684  MEMB      80              0.0000000000
      9841        80  23SM      P             -32.6356118902       18.4559134617       24.5010548304  MEMB      80              0.0000000000
      9842        80  23SM      O13           -31.4456928376       18.0412334715       25.3351568120  MEMB      80              0.0000000000
      9843        80  23SM      O14           -33.7790836818       17.5784463118       24.3636562096  MEMB      80              0.0000000000
      9844        80  23SM      O11           -32.1621163263       18.8322668291       23.0739069107  MEMB      80              0.0000000000
      9845        80  23SM      O12           -33.2279383695       19.8450565675       25.1230918977  MEMB      80              0.0000000000
      9846        80  23SM      C1S           -33.1443299270       19.5228702742       22.1919199314  MEMB      80              0.0000000000
      9847        80  23SM      H1S           -32.8019419427       20.5729159870       22.0715227301  MEMB      80              0.0000000000
      9848        80  23SM      H1T           -34.2021699803       19.4539096091       22.5243952618  MEMB      80              0.0000000000
      9849        80  23SM      NF            -33.7192062890       17.5041088372       20.8768421567  MEMB      80              0.0000000000
      9850        80  23SM      HNF           -33.1398785809       16.6929045742       20.8951728180  MEMB      80              0.0000000000
      9851        80  23SM      C2S           -33.1382544964       18.7986575019       20.7618862650  MEMB      80              0.0000000000
      9852        80  23SM      H2S           -33.7249104329       19.3789875251       20.0179959379  MEMB      80              0.0000000000
      9853        80  23SM      C3S           -31.7356634341       18.7121469089       20.2437370111  MEMB      80              0.0000000000
      9854        80  23SM      H3S           -31.0382311653       18.2889016620       20.9979074304  MEMB      80              0.0000000000
      9855        80  23SM      O3            -31.1622153823       20.0001370232       19.8872949033  MEMB      80              0.0000000000
      9856        80  23SM      HO3           -31.8362758845       20.6772274338       19.9810556917  MEMB      80              0.0000000000
      9857        80  23SM      C4S           -31.5783410386       17.8874626567       18.9943285674  MEMB      80              0.0000000000
      9858        80  23SM      H4S           -32.3056102788       18.1912755099       18.2270108067  MEMB      80              0.0000000000
      9859        80  23SM      C5S           -30.7947514189       16.7588200786       18.9223283194  MEMB      80              0.0000000000
      9860        80  23SM      H5S           -30.2305114451       16.4698584458       19.8212912702  MEMB      80              0.0000000000
      9861        80  23SM      C6S           -30.5209207780       15.8451214147       17.6685000714  MEMB      80              0.0000000000
      9862        80  23SM      H6S           -30.5792719641       14.7553979858       17.8768721434  MEMB      80              0.0000000000
      9863        80  23SM      H6T           -29.4806704576       16.0674836536       17.3479461817  MEMB      80              0.0000000000
      9864        80  23SM      C7S           -31.2611643605       16.2168279701       16.4166003806  MEMB      80              0.0000000000
      9865        80  23SM      H7S           -31.4121375381       17.3175106864       16.4115200861  MEMB      80              0.0000000000
      9866        80  23SM      H7T           -32.2703171210       15.7558589716       16.3579551169  MEMB      80              0.0000000000
      9867        80  23SM      C8S           -30.4630206394       15.8419121317       15.1496635194  MEMB      80              0.0000000000
      9868        80  23SM      H8S           -30.0687630899       14.8137039094       15.2968697371  MEMB      80              0.0000000000
      9869        80  23SM      H8T           -29.5635967534       16.4794373400       15.0121175051  MEMB      80              0.0000000000
      9870        80  23SM      C9S           -31.2799061116       15.8996204532       13.8356087994  MEMB      80              0.0000000000
      9871        80  23SM      H9S           -31.6649994953       16.9386151157       13.7549003947  MEMB      80              0.0000000000
      9872        80  23SM      H9T           -32.1455461457       15.2132932818       13.9536922529  MEMB      80              0.0000000000
      9873        80  23SM      C10S          -30.4937694452       15.5754209969       12.5798966799  MEMB      80              0.0000000000
      9874        80  23SM      H10S          -30.0941312124       14.5409291148       12.6465064507  MEMB      80              0.0000000000
      9875        80  23SM      H10T          -29.5985397945       16.2333445941       12.5752627931  MEMB      80              0.0000000000
      9876        80  23SM      C11S          -31.3804981024       15.6931641735       11.3246553016  MEMB      80              0.0000000000
      9877        80  23SM      H11S          -31.5985601414       16.7823732875       11.3048261797  MEMB      80              0.0000000000
      9878        80  23SM      H11T          -32.3768558777       15.2269113353       11.4802205785  MEMB      80              0.0000000000
      9879        80  23SM      C12S          -30.6664035626       15.3631855769       10.0282898915  MEMB      80              0.0000000000
      9880        80  23SM      H12S          -30.0946434300       14.4181997169        9.9082347070  MEMB      80              0.0000000000
      9881        80  23SM      H12T          -29.8366021225       16.0739827818        9.8269988429  MEMB      80              0.0000000000
      9882        80  23SM      C13S          -31.6799302203       15.3631880548        8.8696745790  MEMB      80              0.0000000000
      9883        80  23SM      H13S          -32.3667760776       16.2211562271        9.0323230038  MEMB      80              0.0000000000
      9884        80  23SM      H13T          -32.2950500129       14.4436526269        8.9716700077  MEMB      80              0.0000000000
      9885        80  23SM      C14S          -30.9173094098       15.4450656374        7.5893633308  MEMB      80              0.0000000000
      9886        80  23SM      H14S          -30.1342528519       14.6636834650        7.6922469694  MEMB      80              0.0000000000
      9887        80  23SM      H14T          -30.4383253477       16.4458136663        7.5310658579  MEMB      80              0.0000000000
      9888        80  23SM      C15S          -31.8230167172       15.4025138604        6.2642326691  MEMB      80              0.0000000000
      9889        80  23SM      H15S          -32.6741385036       16.1132026395        6.1947050770  MEMB      80              0.0000000000
      9890        80  23SM      H15T          -32.1991698540       14.3578378740        6.3027259416  MEMB      80              0.0000000000
      9891        80  23SM      C16S          -30.9194115875       15.5056700017        4.9895451203  MEMB      80              0.0000000000
      9892        80  23SM      H16S          -30.2142062910       14.6483010440        5.0334134062  MEMB      80              0.0000000000
      9893        80  23SM      H16T          -30.3555075117       16.4467947348        5.1645265205  MEMB      80              0.0000000000
      9894        80  23SM      C17S          -31.7195288542       15.4548793235        3.6372339738  MEMB      80              0.0000000000
      9895        80  23SM      H17S          -31.2508755556       16.3423915010        3.1607818451  MEMB      80              0.0000000000
      9896        80  23SM      H17T          -32.7812258666       15.7083698848        3.8442674294  MEMB      80              0.0000000000
      9897        80  23SM      C18S          -31.3903534293       14.2189122119        2.7914349014  MEMB      80              0.0000000000
      9898        80  23SM      H18S          -31.5124786474       14.4694918954        1.7159730079  MEMB      80              0.0000000000
      9899        80  23SM      H18T          -32.0371765192       13.3514911498        3.0434704442  MEMB      80              0.0000000000
      9900        80  23SM      H18U          -30.3226533185       13.9270156191        2.8870003754  MEMB      80              0.0000000000
      9901        80  23SM      C1F           -35.0512761563       17.1539633728       21.0814824012  MEMB      80              0.0000000000
      9902        80  23SM      OF            -35.8635560827       17.8904618749       21.4836758288  MEMB      80              0.0000000000
      9903        80  23SM      C2F           -35.3282139894       15.7164823881       20.8306800237  MEMB      80              0.0000000000
      9904        80  23SM      H2F           -35.1983668656       15.0679281705       21.7233378500  MEMB      80              0.0000000000
      9905        80  23SM      H2G           -34.6355019542       15.3577518557       20.0396152940  MEMB      80              0.0000000000
      9906        80  23SM      C3F           -36.7938320253       15.5603030670       20.3390655549  MEMB      80              0.0000000000
      9907        80  23SM      H3F           -37.4493528030       15.8382118331       21.1919311773  MEMB      80              0.0000000000
      9908        80  23SM      H3G           -36.9696590979       14.4753664475       20.1768366409  MEMB      80              0.0000000000
      9909        80  23SM      C4F           -37.0695829073       16.3156743079       19.0506733257  MEMB      80              0.0000000000
      9910        80  23SM      H4F           -36.8630260388       17.4069627853       19.0779611629  MEMB      80              0.0000000000
      9911        80  23SM      H4G           -38.1650045482       16.1667059076       18.9403062480  MEMB      80              0.0000000000
      9912        80  23SM      C5F           -36.2367971917       15.7831600195       17.8668803252  MEMB      80              0.0000000000
      9913        80  23SM      H5F           -36.2078705460       14.6882541856       18.0530666806  MEMB      80              0.0000000000
      9914        80  23SM      H5G           -35.1772164510       16.1021697991       17.7676717803  MEMB      80              0.0000000000
      9915        80  23SM      C6F           -36.7940136623       15.9552426437       16.4193514192  MEMB      80              0.0000000000
      9916        80  23SM      H6F           -36.6850443404       17.0295962304       16.1581791515  MEMB      80              0.0000000000
      9917        80  23SM      H6G           -37.8867529879       15.8078595310       16.5554408143  MEMB      80              0.0000000000
      9918        80  23SM      C7F           -36.0664939305       15.2505423436       15.3490786452  MEMB      80              0.0000000000
      9919        80  23SM      H7F           -36.4329449236       14.2061153958       15.4450329359  MEMB      80              0.0000000000
      9920        80  23SM      H7G           -34.9913107167       15.1460220052       15.6086508295  MEMB      80              0.0000000000
      9921        80  23SM      C8F           -36.2519607375       15.7217568293       13.9027651737  MEMB      80              0.0000000000
      9922        80  23SM      H8F           -37.3258346515       15.9258826274       13.7041480140  MEMB      80              0.0000000000
      9923        80  23SM      H8G           -35.9834507921       14.8971050129       13.2083777670  MEMB      80              0.0000000000
      9924        80  23SM      C9F           -35.4917013819       17.0249002486       13.4876903009  MEMB      80              0.0000000000
      9925        80  23SM      H9F           -34.4300164206       16.7511646618       13.3082058997  MEMB      80              0.0000000000
      9926        80  23SM      H9G           -35.5092806478       17.6964990384       14.3725449587  MEMB      80              0.0000000000
      9927        80  23SM      C10F          -35.9723055270       17.6743107576       12.1707056224  MEMB      80              0.0000000000
      9928        80  23SM      H10F          -37.0467369174       17.9549691163       12.2046047459  MEMB      80              0.0000000000
      9929        80  23SM      H10G          -35.7023153656       17.0174656840       11.3163163594  MEMB      80              0.0000000000
      9930        80  23SM      C11F          -35.1255743135       18.9772968915       11.7657970605  MEMB      80              0.0000000000
      9931        80  23SM      H11F          -35.1961144172       19.8325961065       12.4713525300  MEMB      80              0.0000000000
      9932        80  23SM      H11G          -35.4585970820       19.3450298929       10.7717200352  MEMB      80              0.0000000000
      9933        80  23SM      C12F          -33.5776965216       18.7055700530       11.6398049824  MEMB      80              0.0000000000
      9934        80  23SM      H12F          -33.6445290345       18.0497280652       10.7455320118  MEMB      80              0.0000000000
      9935        80  23SM      H12G          -33.1793691070       18.2428881000       12.5680193766  MEMB      80              0.0000000000
      9936        80  23SM      C13F          -32.7730955028       19.9459295200       11.3124504034  MEMB      80              0.0000000000
      9937        80  23SM      H13F          -31.7596823077       19.7215393711       11.7086377733  MEMB      80              0.0000000000
      9938        80  23SM      H13G          -33.2498034333       20.8306405946       11.7861134434  MEMB      80              0.0000000000
      9939        80  23SM      C14F          -32.6831124789       20.3415282527        9.8540123099  MEMB      80              0.0000000000
      9940        80  23SM      H14F          -32.2236938511       21.3384979430        9.6828192980  MEMB      80              0.0000000000
      9941        80  23SM      H14G          -33.7091887444       20.3471853622        9.4280350522  MEMB      80              0.0000000000
      9942        80  23SM      C15F          -31.7138587413       19.5061533034        8.9588843514  MEMB      80              0.0000000000
      9943        80  23SM      H15F          -31.9206860977       18.4611995947        9.2745025670  MEMB      80              0.0000000000
      9944        80  23SM      H15G          -30.6321664960       19.7544241094        9.0101130635  MEMB      80              0.0000000000
      9945        80  23SM      C16F          -32.1699528398       19.6889577748        7.5184403087  MEMB      80              0.0000000000
      9946        80  23SM      H16F          -31.3675881294       19.4522815834        6.7873338914  MEMB      80              0.0000000000
      9947        80  23SM      H16G          -32.4248529463       20.7413738697        7.2699090388  MEMB      80              0.0000000000
      9948        80  23SM      C17F          -33.3768234285       18.8597637804        7.0774867262  MEMB      80              0.0000000000
      9949        80  23SM      H17F          -34.2786859150       19.2246319078        7.6139918534  MEMB      80              0.0000000000
      9950        80  23SM      H17G          -33.2294015976       17.7865304720        7.3239782460  MEMB      80              0.0000000000
      9951        80  23SM      C18F          -33.6446030538       19.2655502366        5.6047761715  MEMB      80              0.0000000000
      9952        80  23SM      H18F          -32.7109302536       19.1381458147        5.0162655147  MEMB      80              0.0000000000
      9953        80  23SM      H18G          -33.7794311569       20.3627534019        5.7156266051  MEMB      80              0.0000000000
      9954        80  23SM      C19F          -34.8380009973       18.5293605216        4.9583919706  MEMB      80              0.0000000000
      9955        80  23SM      H19F          -35.6766662437       18.6604797345        5.6751691097  MEMB      80              0.0000000000
      9956        80  23SM      H19G          -34.6751612576       17.4303603383        4.9566734504  MEMB      80              0.0000000000
      9957        80  23SM      C20F          -35.1604831940       18.9875759877        3.5231181216  MEMB      80              0.0000000000
      9958        80  23SM      H20F          -35.3396317760       20.0814629657        3.5982080833  MEMB      80              0.0000000000
      9959        80  23SM      H20G          -36.0618878406       18.3813590669        3.2901118345  MEMB      80              0.0000000000
      9960        80  23SM      C21F          -34.2325065540       18.7127747837        2.3940586862  MEMB      80              0.0000000000
      9961        80  23SM      H21F          -33.8396624520       17.6766600069        2.3136816455  MEMB      80              0.0000000000
      9962        80  23SM      H21G          -33.3589338898       19.3895607073        2.5087470930  MEMB      80              0.0000000000
      9963        80  23SM      C22F          -34.7550178476       19.0283754127        1.0085994201  MEMB      80              0.0000000000
      9964        80  23SM      H22F          -35.7282578737       18.5268877496        0.8198265888  MEMB      80              0.0000000000
      9965        80  23SM      H22G          -34.0393771349       18.6627529459        0.2414619760  MEMB      80              0.0000000000
      9966        80  23SM      C23F          -34.9562995057       20.5212022014        0.7140569201  MEMB      80              0.0000000000
      9967        80  23SM      H23F          -35.1665169203       20.6383014063       -0.3705707041  MEMB      80              0.0000000000
      9968        80  23SM      H23G          -34.0286794802       21.1223560045        0.8256613678  MEMB      80              0.0000000000
      9969        80  23SM      H23H          -35.7507126032       20.9753303007        1.3441341416  MEMB      80              0.0000000000
      9970        81  CHL1      C3             15.4240553237      -35.2870531725       17.3387100000  MEMB      81              0.0000000000
      9971        81  CHL1      H3             16.4850880990      -35.5476457863       17.1371300000  MEMB      81              0.0000000000
      9972        81  CHL1      O3             15.1071826763      -35.0982506275       18.6612900000  MEMB      81              0.0000000000
      9973        81  CHL1      H3'            15.6062917628      -34.3337153428       18.9579300000  MEMB      81              0.0000000000
      9974        81  CHL1      C4             15.1684342135      -33.9540187368       16.6275600000  MEMB      81              0.0000000000
      9975        81  CHL1      H4A            14.1772110142      -33.5785303894       16.9604300000  MEMB      81              0.0000000000
      9976        81  CHL1      H4B            15.8908038325      -33.2486317291       17.0911600000  MEMB      81              0.0000000000
      9977        81  CHL1      C5             15.3306201271      -34.0688042238       15.1265100000  MEMB      81              0.0000000000
      9978        81  CHL1      C6             16.2552856437      -33.4536647308       14.4379300000  MEMB      81              0.0000000000
      9979        81  CHL1      H6             16.9444283983      -32.7459785968       14.9219400000  MEMB      81              0.0000000000
      9980        81  CHL1      C7             16.3278793334      -33.5586791470       12.9588500000  MEMB      81              0.0000000000
      9981        81  CHL1      H7A            16.5232797234      -32.5603413951       12.5122200000  MEMB      81              0.0000000000
      9982        81  CHL1      H7B            17.2329861510      -34.1248458949       12.6513600000  MEMB      81              0.0000000000
      9983        81  CHL1      C8             15.1192389024      -34.2365436284       12.2602500000  MEMB      81              0.0000000000
      9984        81  CHL1      H8             14.1970976855      -33.6174843892       12.2875900000  MEMB      81              0.0000000000
      9985        81  CHL1      C14            15.4421441142      -34.4331606643       10.8435800000  MEMB      81              0.0000000000
      9986        81  CHL1      H14            16.4125611989      -34.9737527466       10.8632800000  MEMB      81              0.0000000000
      9987        81  CHL1      C15            15.5997351906      -33.1535534829        9.9888000000  MEMB      81              0.0000000000
      9988        81  CHL1      H15A           14.9382510742      -32.3585853252       10.3947300000  MEMB      81              0.0000000000
      9989        81  CHL1      H15B           16.5974789236      -32.6807003881       10.1123000000  MEMB      81              0.0000000000
      9990        81  CHL1      C16            15.2049608173      -33.5058583313        8.5385400000  MEMB      81              0.0000000000
      9991        81  CHL1      H16A           14.2344718165      -33.0671013850        8.2223500000  MEMB      81              0.0000000000
      9992        81  CHL1      H16B           16.0844539879      -33.2943528108        7.8935000000  MEMB      81              0.0000000000
      9993        81  CHL1      C17            14.9215270027      -35.0242613029        8.6046600000  MEMB      81              0.0000000000
      9994        81  CHL1      H17            15.8948848081      -35.5585362766        8.5665700000  MEMB      81              0.0000000000
      9995        81  CHL1      C13            14.4479048254      -35.2605510371       10.0749400000  MEMB      81              0.0000000000
      9996        81  CHL1      C18            12.9737383663      -34.7190199713       10.2134000000  MEMB      81              0.0000000000
      9997        81  CHL1      H18A           13.0148721316      -33.6184297792       10.0673800000  MEMB      81              0.0000000000
      9998        81  CHL1      H18B           12.1785305069      -35.1986401107        9.6035200000  MEMB      81              0.0000000000
      9999        81  CHL1      H18C           12.7049902808      -34.9278485506       11.2709800000  MEMB      81              0.0000000000
     10000        81  CHL1      C12            14.5260815489      -36.6574245370       10.6797300000  MEMB      81              0.0000000000
     10001        81  CHL1      H12A           13.7390873949      -37.2692012318       10.1891200000  MEMB      81              0.0000000000
     10002        81  CHL1      H12B           15.5405203261      -37.0931590914       10.5557900000  MEMB      81              0.0000000000
     10003        81  CHL1      C11            14.2050893505      -36.6474488130       12.2270600000  MEMB      81              0.0000000000
     10004        81  CHL1      H11A           13.1034939163      -36.6434299017       12.3712000000  MEMB      81              0.0000000000
     10005        81  CHL1      H11B           14.4532802005      -37.6552912271       12.6232700000  MEMB      81              0.0000000000
     10006        81  CHL1      C9             14.9665629781      -35.5340442633       12.9787100000  MEMB      81              0.0000000000
     10007        81  CHL1      H9             16.0003536503      -35.9392549669       13.0160600000  MEMB      81              0.0000000000
     10008        81  CHL1      C10            14.4876237418      -35.2105726410       14.4501500000  MEMB      81              0.0000000000
     10009        81  CHL1      C19            12.9397368380      -34.8900310881       14.4540800000  MEMB      81              0.0000000000
     10010        81  CHL1      H19A           12.6417452131      -34.1422579758       13.6883400000  MEMB      81              0.0000000000
     10011        81  CHL1      H19B           12.3121317803      -35.7687827604       14.1929200000  MEMB      81              0.0000000000
     10012        81  CHL1      H19C           12.6556580285      -34.3925822622       15.4060000000  MEMB      81              0.0000000000
     10013        81  CHL1      C1             14.8129829896      -36.5827217423       15.2641700000  MEMB      81              0.0000000000
     10014        81  CHL1      H1A            14.2045591637      -37.4259354863       14.8728500000  MEMB      81              0.0000000000
     10015        81  CHL1      H1B            15.8968436511      -36.8175272643       15.1974900000  MEMB      81              0.0000000000
     10016        81  CHL1      C2             14.4804089372      -36.3848448167       16.7650500000  MEMB      81              0.0000000000
     10017        81  CHL1      H2A            14.7744617473      -37.3492333664       17.2317400000  MEMB      81              0.0000000000
     10018        81  CHL1      H2B            13.4261064783      -36.1050537331       16.9760000000  MEMB      81              0.0000000000
     10019        81  CHL1      C20            14.1007571644      -35.5409635745        7.4274800000  MEMB      81              0.0000000000
     10020        81  CHL1      H20            13.0582799356      -35.1789193698        7.5558800000  MEMB      81              0.0000000000
     10021        81  CHL1      C21            14.0014477861      -37.1078129124        7.4074700000  MEMB      81              0.0000000000
     10022        81  CHL1      H21A           15.0250438555      -37.5000774748        7.5882900000  MEMB      81              0.0000000000
     10023        81  CHL1      H21B           13.5040250260      -37.6323466271        6.5638100000  MEMB      81              0.0000000000
     10024        81  CHL1      H21C           13.3931825588      -37.5132305260        8.2441200000  MEMB      81              0.0000000000
     10025        81  CHL1      C22            14.7789414961      -35.1384353626        6.1442600000  MEMB      81              0.0000000000
     10026        81  CHL1      H22A           14.9117146643      -34.0377928835        6.0716500000  MEMB      81              0.0000000000
     10027        81  CHL1      H22B           15.7891171732      -35.5962050475        6.2099100000  MEMB      81              0.0000000000
     10028        81  CHL1      C23            14.1457773721      -35.5987171899        4.8511300000  MEMB      81              0.0000000000
     10029        81  CHL1      H23A           14.6515548177      -35.0490927711        4.0286800000  MEMB      81              0.0000000000
     10030        81  CHL1      H23B           14.3218453640      -36.6716128485        4.6226400000  MEMB      81              0.0000000000
     10031        81  CHL1      C24            12.6269342690      -35.3410642516        4.8555200000  MEMB      81              0.0000000000
     10032        81  CHL1      H24A           12.1831045222      -36.0438668164        5.5926800000  MEMB      81              0.0000000000
     10033        81  CHL1      H24B           12.4041093508      -34.3672751736        5.3417400000  MEMB      81              0.0000000000
     10034        81  CHL1      C25            11.9777041829      -35.3747983852        3.4513900000  MEMB      81              0.0000000000
     10035        81  CHL1      H25            11.9134919008      -36.3448169148        2.9135600000  MEMB      81              0.0000000000
     10036        81  CHL1      C26            10.4513274578      -35.0018085225        3.7030800000  MEMB      81              0.0000000000
     10037        81  CHL1      H26A           10.2418711585      -34.0845488787        4.2939200000  MEMB      81              0.0000000000
     10038        81  CHL1      H26B            9.8919949321      -34.9237472576        2.7463300000  MEMB      81              0.0000000000
     10039        81  CHL1      H26C            9.9959348817      -35.7842203957        4.3471100000  MEMB      81              0.0000000000
     10040        81  CHL1      C27            12.5507710000      -34.3379020459        2.4091800000  MEMB      81              0.0000000000
     10041        81  CHL1      H27A           13.5529954813      -34.7018388741        2.0970700000  MEMB      81              0.0000000000
     10042        81  CHL1      H27B           11.9116398221      -34.1926778775        1.5121100000  MEMB      81              0.0000000000
     10043        81  CHL1      H27C           12.7080193755      -33.3175966929        2.8197600000  MEMB      81              0.0000000000
     10044        82  DOPE      N              30.3735560965       23.6218459726       21.7940773621  MEMB      82              0.0000000000
     10045        82  DOPE      HN1            30.0414356860       22.6363236501       21.7876020862  MEMB      82              0.0000000000
     10046        82  DOPE      HN2            31.1616089789       23.6092140836       21.1155399038  MEMB      82              0.0000000000
     10047        82  DOPE      HN3            30.6304074449       23.8588772807       22.7735891946  MEMB      82              0.0000000000
     10048        82  DOPE      C12            29.3143281448       24.5595086539       21.3012963990  MEMB      82              0.0000000000
     10049        82  DOPE      H12A           29.9261524351       25.4740681279       21.1477612496  MEMB      82              0.0000000000
     10050        82  DOPE      H12B           28.6205559359       24.7668778186       22.1439110164  MEMB      82              0.0000000000
     10051        82  DOPE      C11            28.6834187831       24.2165432861       19.9599924642  MEMB      82              0.0000000000
     10052        82  DOPE      H11A           28.6249531791       25.2040863498       19.4543626001  MEMB      82              0.0000000000
     10053        82  DOPE      H11B           27.6638511685       23.7887431322       20.0685746671  MEMB      82              0.0000000000
     10054        82  DOPE      P              29.7909618386       23.6334150469       17.7373791976  MEMB      82              0.0000000000
     10055        82  DOPE      O13            30.4119482833       24.9784661657       17.6533161632  MEMB      82              0.0000000000
     10056        82  DOPE      O14            28.5159672577       23.4490572935       16.9711333266  MEMB      82              0.0000000000
     10057        82  DOPE      O11            30.8885021130       22.5320277006       17.3899158950  MEMB      82              0.0000000000
     10058        82  DOPE      O12            29.4615311138       23.1933822588       19.1928891928  MEMB      82              0.0000000000
     10059        82  DOPE      C1             30.4930475733       21.1874496574       17.6588813612  MEMB      82              0.0000000000
     10060        82  DOPE      HA             29.4528438878       20.9675663165       17.3364706303  MEMB      82              0.0000000000
     10061        82  DOPE      HB             30.6811447676       20.8890386375       18.7123951235  MEMB      82              0.0000000000
     10062        82  DOPE      C2             31.4062319356       20.2604060589       16.7955194442  MEMB      82              0.0000000000
     10063        82  DOPE      HS             32.3262662659       19.9949492763       17.3588935454  MEMB      82              0.0000000000
     10064        82  DOPE      O21            31.8375515104       20.8865863698       15.5414385754  MEMB      82              0.0000000000
     10065        82  DOPE      C21            32.8222555937       20.3427691540       14.8512910025  MEMB      82              0.0000000000
     10066        82  DOPE      O22            33.5221961223       19.3806585836       15.1706466791  MEMB      82              0.0000000000
     10067        82  DOPE      C22            32.9766753929       21.3143667373       13.6523964480  MEMB      82              0.0000000000
     10068        82  DOPE      H2R            33.6374291935       22.2044593203       13.7262913751  MEMB      82              0.0000000000
     10069        82  DOPE      H2S            31.9681942262       21.5632349355       13.2582502212  MEMB      82              0.0000000000
     10070        82  DOPE      C3             30.6874027017       18.9907622624       16.4435547574  MEMB      82              0.0000000000
     10071        82  DOPE      HX             30.4486880253       18.3536918498       17.3218926181  MEMB      82              0.0000000000
     10072        82  DOPE      HY             31.2387436574       18.3765460657       15.6998592459  MEMB      82              0.0000000000
     10073        82  DOPE      O31            29.4069233468       19.2539763109       15.8150717332  MEMB      82              0.0000000000
     10074        82  DOPE      C31            29.1458144377       18.7984520437       14.5989239060  MEMB      82              0.0000000000
     10075        82  DOPE      O32            29.7797790555       17.9883399326       13.9395123149  MEMB      82              0.0000000000
     10076        82  DOPE      C32            27.9420430098       19.4302924784       14.0486740115  MEMB      82              0.0000000000
     10077        82  DOPE      H2X            27.6810317183       18.9409211617       13.0860165490  MEMB      82              0.0000000000
     10078        82  DOPE      H2Y            27.0795242820       19.2778082486       14.7321435749  MEMB      82              0.0000000000
     10079        82  DOPE      C23            33.7615944401       20.4623023782       12.5920766128  MEMB      82              0.0000000000
     10080        82  DOPE      H3R            34.7250967100       20.0695206110       12.9815721095  MEMB      82              0.0000000000
     10081        82  DOPE      H3S            33.9902940118       21.1441020457       11.7452192101  MEMB      82              0.0000000000
     10082        82  DOPE      C24            32.9788367580       19.2715762963       12.0793792832  MEMB      82              0.0000000000
     10083        82  DOPE      H4R            32.3261517986       18.8375460260       12.8667424330  MEMB      82              0.0000000000
     10084        82  DOPE      H4S            33.7621705139       18.5491131084       11.7651234306  MEMB      82              0.0000000000
     10085        82  DOPE      C25            32.0992440673       19.5848978883       10.8611969673  MEMB      82              0.0000000000
     10086        82  DOPE      H5R            31.9545940881       18.6650789536       10.2551192269  MEMB      82              0.0000000000
     10087        82  DOPE      H5S            32.7060777980       20.3572287114       10.3419873224  MEMB      82              0.0000000000
     10088        82  DOPE      C26            30.6849945140       20.3788623603       10.8700293640  MEMB      82              0.0000000000
     10089        82  DOPE      H6R            30.8179485386       21.0982695064       10.0339084754  MEMB      82              0.0000000000
     10090        82  DOPE      H6S            30.5958937511       20.9949533701       11.7902539785  MEMB      82              0.0000000000
     10091        82  DOPE      C27            29.4523890437       19.6136935511       10.6654423331  MEMB      82              0.0000000000
     10092        82  DOPE      H7R            28.5306017145       20.2096008525       10.8372671284  MEMB      82              0.0000000000
     10093        82  DOPE      H7S            29.2910855149       18.7662564744       11.3655514806  MEMB      82              0.0000000000
     10094        82  DOPE      C28            29.2305194071       18.8691401591        9.3096236039  MEMB      82              0.0000000000
     10095        82  DOPE      H8R            28.3976359681       18.1339064217        9.3020141071  MEMB      82              0.0000000000
     10096        82  DOPE      H8S            30.1115799212       18.1944516281        9.2562502039  MEMB      82              0.0000000000
     10097        82  DOPE      C29            29.0945672870       19.8364416805        8.1140982790  MEMB      82              0.0000000000
     10098        82  DOPE      H9R            28.4769825183       20.7002771753        8.4011129476  MEMB      82              0.0000000000
     10099        82  DOPE      C210           29.6882143595       19.7990653184        6.9545002925  MEMB      82              0.0000000000
     10100        82  DOPE      H10R           29.4720123661       20.5780975691        6.2086013267  MEMB      82              0.0000000000
     10101        82  DOPE      C211           30.7120167202       18.8132651310        6.3826307305  MEMB      82              0.0000000000
     10102        82  DOPE      H11R           31.1810344846       18.3396888696        7.2714883185  MEMB      82              0.0000000000
     10103        82  DOPE      H11S           31.3731687961       19.4327338289        5.7396237277  MEMB      82              0.0000000000
     10104        82  DOPE      C212           30.0180927429       17.7198510155        5.5830693298  MEMB      82              0.0000000000
     10105        82  DOPE      H12R           29.2986517569       17.1888073751        6.2424013714  MEMB      82              0.0000000000
     10106        82  DOPE      H12S           30.8863287004       17.1398127289        5.2035393862  MEMB      82              0.0000000000
     10107        82  DOPE      C213           29.3613580550       18.2447776278        4.2992573601  MEMB      82              0.0000000000
     10108        82  DOPE      H13R           28.5592269968       18.9445862080        4.6173381945  MEMB      82              0.0000000000
     10109        82  DOPE      H13S           28.8922741570       17.3536119973        3.8301042126  MEMB      82              0.0000000000
     10110        82  DOPE      C214           30.2529261627       19.0140732775        3.2843849651  MEMB      82              0.0000000000
     10111        82  DOPE      H14R           30.8698222673       19.7598041178        3.8299539735  MEMB      82              0.0000000000
     10112        82  DOPE      H14S           29.4951564251       19.5372097264        2.6627463974  MEMB      82              0.0000000000
     10113        82  DOPE      C215           31.1457352914       18.0438397716        2.4547378758  MEMB      82              0.0000000000
     10114        82  DOPE      H15R           30.4495955367       17.6285501402        1.6949715691  MEMB      82              0.0000000000
     10115        82  DOPE      H15S           31.6669153900       17.3007249200        3.0954193170  MEMB      82              0.0000000000
     10116        82  DOPE      C216           32.2970601867       18.8522306448        1.7884505447  MEMB      82              0.0000000000
     10117        82  DOPE      H16R           32.8661355280       19.3819906597        2.5820683664  MEMB      82              0.0000000000
     10118        82  DOPE      H16S           31.7765635722       19.5781004205        1.1277561398  MEMB      82              0.0000000000
     10119        82  DOPE      C217           33.3333435628       18.0417534981        0.9872333616  MEMB      82              0.0000000000
     10120        82  DOPE      H17R           32.7697961342       17.1208780958        0.7250818895  MEMB      82              0.0000000000
     10121        82  DOPE      H17S           34.1399415688       17.6657940548        1.6523463348  MEMB      82              0.0000000000
     10122        82  DOPE      C218           33.9365672116       18.6783448136       -0.2539289999  MEMB      82              0.0000000000
     10123        82  DOPE      H18R           34.5682853227       17.9832772187       -0.8473390072  MEMB      82              0.0000000000
     10124        82  DOPE      H18S           34.5842201945       19.5002572293        0.1193359303  MEMB      82              0.0000000000
     10125        82  DOPE      H18T           33.1748859445       19.1461893908       -0.9136897729  MEMB      82              0.0000000000
     10126        82  DOPE      C33            28.2076879680       20.9563467533       13.8955977131  MEMB      82              0.0000000000
     10127        82  DOPE      H3X            29.0263879424       21.1513689596       13.1703271095  MEMB      82              0.0000000000
     10128        82  DOPE      H3Y            28.4992586200       21.3232885075       14.9029019436  MEMB      82              0.0000000000
     10129        82  DOPE      C34            26.9648500931       21.6542412584       13.3676331687  MEMB      82              0.0000000000
     10130        82  DOPE      H4X            26.6670485816       21.2699862938       12.3686421702  MEMB      82              0.0000000000
     10131        82  DOPE      H4Y            26.0920092538       21.4622274714       14.0276336710  MEMB      82              0.0000000000
     10132        82  DOPE      C35            27.3278183432       23.1603059804       13.1376922360  MEMB      82              0.0000000000
     10133        82  DOPE      H5X            27.8838912599       23.5443444797       14.0195186759  MEMB      82              0.0000000000
     10134        82  DOPE      H5Y            26.4874986664       23.8803620238       13.0391896123  MEMB      82              0.0000000000
     10135        82  DOPE      C36            27.9700936449       23.3558965122       11.7991320070  MEMB      82              0.0000000000
     10136        82  DOPE      H6X            27.2904411366       23.8329410368       11.0610111003  MEMB      82              0.0000000000
     10137        82  DOPE      H6Y            28.2519463485       22.3510824412       11.4180427359  MEMB      82              0.0000000000
     10138        82  DOPE      C37            29.3164776280       24.1395330548       11.6889099744  MEMB      82              0.0000000000
     10139        82  DOPE      H7X            28.9712107711       25.1664774468       11.9348713160  MEMB      82              0.0000000000
     10140        82  DOPE      H7Y            30.0541383182       23.7488120922       12.4220641377  MEMB      82              0.0000000000
     10141        82  DOPE      C38            29.9116767067       24.3040260174       10.2993210533  MEMB      82              0.0000000000
     10142        82  DOPE      H8X            29.1328093848       24.8425535984        9.7182229352  MEMB      82              0.0000000000
     10143        82  DOPE      H8Y            30.1213230606       23.3256449683        9.8164753538  MEMB      82              0.0000000000
     10144        82  DOPE      C39            31.0716635333       25.2338749269       10.2634502286  MEMB      82              0.0000000000
     10145        82  DOPE      H9X            30.9395020772       26.2045972450       10.7636810155  MEMB      82              0.0000000000
     10146        82  DOPE      C310           32.2733308818       24.9356995784        9.7826257002  MEMB      82              0.0000000000
     10147        82  DOPE      H10X           33.0896533122       25.6730005073        9.7848485921  MEMB      82              0.0000000000
     10148        82  DOPE      C311           32.7223708854       23.6490455700        9.1902509964  MEMB      82              0.0000000000
     10149        82  DOPE      H11X           33.8323845287       23.6718167615        9.1493545017  MEMB      82              0.0000000000
     10150        82  DOPE      H11Y           32.3862465556       22.8358096847        9.8684752606  MEMB      82              0.0000000000
     10151        82  DOPE      C312           32.3210506860       23.1860635172        7.8017882472  MEMB      82              0.0000000000
     10152        82  DOPE      H12X           31.2335314304       22.9789211738        7.7084350258  MEMB      82              0.0000000000
     10153        82  DOPE      H12Y           32.8073634665       22.1899962194        7.7264798131  MEMB      82              0.0000000000
     10154        82  DOPE      C313           32.7036464485       24.1210035033        6.5691756048  MEMB      82              0.0000000000
     10155        82  DOPE      H13X           32.1593220400       25.0892622197        6.5917075818  MEMB      82              0.0000000000
     10156        82  DOPE      H13Y           33.8059414652       24.2592586715        6.5815051142  MEMB      82              0.0000000000
     10157        82  DOPE      C314           32.4132717086       23.5260681605        5.2330246495  MEMB      82              0.0000000000
     10158        82  DOPE      H14X           31.3587222274       23.2227221072        5.0591641722  MEMB      82              0.0000000000
     10159        82  DOPE      H14Y           32.9589265791       22.5632092551        5.1356368000  MEMB      82              0.0000000000
     10160        82  DOPE      C315           32.8792468791       24.3397177038        3.9771073591  MEMB      82              0.0000000000
     10161        82  DOPE      H15X           33.9501149230       24.1359769597        3.7625079530  MEMB      82              0.0000000000
     10162        82  DOPE      H15Y           32.7520108105       25.4399741870        4.0640991061  MEMB      82              0.0000000000
     10163        82  DOPE      C316           32.1619313607       23.9905187058        2.6748325090  MEMB      82              0.0000000000
     10164        82  DOPE      H16X           32.6549859628       24.7225859158        2.0000768502  MEMB      82              0.0000000000
     10165        82  DOPE      H16Y           31.0678512814       24.1448525389        2.7909858422  MEMB      82              0.0000000000
     10166        82  DOPE      C317           32.4479909536       22.5720812540        2.0714017459  MEMB      82              0.0000000000
     10167        82  DOPE      H17X           33.5561454825       22.5083063428        2.1188039684  MEMB      82              0.0000000000
     10168        82  DOPE      H17Y           32.0679541441       21.8063173328        2.7809778976  MEMB      82              0.0000000000
     10169        82  DOPE      C318           32.0163977463       22.4443810563        0.6286928342  MEMB      82              0.0000000000
     10170        82  DOPE      H18X           32.0920591066       23.3956516450        0.0597636594  MEMB      82              0.0000000000
     10171        82  DOPE      H18Y           32.4247461982       21.5421103705        0.1252242884  MEMB      82              0.0000000000
     10172        82  DOPE      H18Z           30.9141081439       22.3073559438        0.6511017166  MEMB      82              0.0000000000
     10173        83  DOPC      N              34.2611419195      -12.0947260175       18.8664979895  MEMB      83              0.0000000000
     10174        83  DOPC      C12            34.7518637507      -13.0694372751       19.8941185473  MEMB      83              0.0000000000
     10175        83  DOPC      H12A           34.0809183675      -13.9113348132       19.9803787601  MEMB      83              0.0000000000
     10176        83  DOPC      H12B           34.7761229574      -12.7294501126       20.9189211038  MEMB      83              0.0000000000
     10177        83  DOPC      C13            32.9467673782      -11.4535872699       19.2309333789  MEMB      83              0.0000000000
     10178        83  DOPC      H13A           32.3290641577      -12.2457859335       19.6274986043  MEMB      83              0.0000000000
     10179        83  DOPC      H13B           33.1084574069      -10.6701573984       19.9565324410  MEMB      83              0.0000000000
     10180        83  DOPC      H13C           32.4291680223      -10.9595997312       18.4219420159  MEMB      83              0.0000000000
     10181        83  DOPC      C14            33.9271486195      -12.7709971696       17.5260819599  MEMB      83              0.0000000000
     10182        83  DOPC      H14A           33.6480179430      -11.9684826812       16.8594062540  MEMB      83              0.0000000000
     10183        83  DOPC      H14B           34.7152417559      -13.4371225160       17.2073559907  MEMB      83              0.0000000000
     10184        83  DOPC      H14C           33.0204241921      -13.2965160875       17.7870049575  MEMB      83              0.0000000000
     10185        83  DOPC      C15            35.2661926619      -10.9192526457       18.7999486876  MEMB      83              0.0000000000
     10186        83  DOPC      H15A           36.2267558314      -11.3827646003       18.6300221722  MEMB      83              0.0000000000
     10187        83  DOPC      H15B           35.2255214320      -10.3748701431       19.7318249403  MEMB      83              0.0000000000
     10188        83  DOPC      H15C           34.9383487368      -10.2886132863       17.9867989571  MEMB      83              0.0000000000
     10189        83  DOPC      C11            36.1204025017      -13.8039866738       19.7391926041  MEMB      83              0.0000000000
     10190        83  DOPC      H11A           36.9013394960      -13.0527223944       19.4941202718  MEMB      83              0.0000000000
     10191        83  DOPC      H11B           36.4712779557      -14.2271827060       20.7046523328  MEMB      83              0.0000000000
     10192        83  DOPC      P              35.7734181635      -16.2723296055       19.0706969093  MEMB      83              0.0000000000
     10193        83  DOPC      O13            34.5741294688      -16.3598456493       19.9078669088  MEMB      83              0.0000000000
     10194        83  DOPC      O14            37.0016832316      -16.8443608185       19.6220783138  MEMB      83              0.0000000000
     10195        83  DOPC      O12            36.0113180894      -14.7440151862       18.6463036462  MEMB      83              0.0000000000
     10196        83  DOPC      O11            35.5027233003      -16.9804241498       17.6962810588  MEMB      83              0.0000000000
     10197        83  DOPC      C1             36.5536610512      -17.4701698815       16.8624472084  MEMB      83              0.0000000000
     10198        83  DOPC      HA             37.0269686926      -18.3635886543       17.3229944535  MEMB      83              0.0000000000
     10199        83  DOPC      HB             37.2873282244      -16.6700405476       16.6261283196  MEMB      83              0.0000000000
     10200        83  DOPC      C2             35.9328874759      -17.9822432131       15.6183046034  MEMB      83              0.0000000000
     10201        83  DOPC      HS             36.6969580650      -18.3645694876       14.9081329692  MEMB      83              0.0000000000
     10202        83  DOPC      O21            35.0918044879      -16.9929120610       15.0112506592  MEMB      83              0.0000000000
     10203        83  DOPC      C21            35.6394564497      -16.3304865059       14.0113495418  MEMB      83              0.0000000000
     10204        83  DOPC      O22            36.7946623670      -16.2402883366       13.7528575379  MEMB      83              0.0000000000
     10205        83  DOPC      C22            34.5722410715      -15.4611639710       13.3623203959  MEMB      83              0.0000000000
     10206        83  DOPC      H2R            34.8823751172      -14.4067781852       13.5248277101  MEMB      83              0.0000000000
     10207        83  DOPC      H2S            33.5929393596      -15.6013758374       13.8679188412  MEMB      83              0.0000000000
     10208        83  DOPC      C3             35.0222362193      -19.2641877070       15.8709238144  MEMB      83              0.0000000000
     10209        83  DOPC      HX             34.3004465380      -19.0606830014       16.6906348660  MEMB      83              0.0000000000
     10210        83  DOPC      HY             35.7648643054      -19.9980236235       16.2508041071  MEMB      83              0.0000000000
     10211        83  DOPC      O31            34.3376514087      -19.5792694345       14.6199264439  MEMB      83              0.0000000000
     10212        83  DOPC      C31            33.0164756748      -19.2611419061       14.6006800971  MEMB      83              0.0000000000
     10213        83  DOPC      O32            32.4078640454      -18.8973780795       15.5885739109  MEMB      83              0.0000000000
     10214        83  DOPC      C32            32.5226929113      -19.4241674262       13.2140548461  MEMB      83              0.0000000000
     10215        83  DOPC      H2X            31.7382960593      -20.2096336331       13.2597164053  MEMB      83              0.0000000000
     10216        83  DOPC      H2Y            32.0772016236      -18.4595695788       12.8893862082  MEMB      83              0.0000000000
     10217        83  DOPC      C23            34.4037998449      -15.7036710126       11.8079951232  MEMB      83              0.0000000000
     10218        83  DOPC      H3R            33.3814009458      -15.4668479662       11.4433905349  MEMB      83              0.0000000000
     10219        83  DOPC      H3S            34.3571738067      -16.8132760480       11.7776039553  MEMB      83              0.0000000000
     10220        83  DOPC      C24            35.4699855747      -15.0577992093       10.9468652179  MEMB      83              0.0000000000
     10221        83  DOPC      H4R            36.4260835964      -15.2727529013       11.4703079597  MEMB      83              0.0000000000
     10222        83  DOPC      H4S            35.3814504100      -13.9564844718       11.0634342507  MEMB      83              0.0000000000
     10223        83  DOPC      C25            35.6252439958      -15.4905027830        9.5237011048  MEMB      83              0.0000000000
     10224        83  DOPC      H5R            35.9732038714      -16.5427387986        9.4459556928  MEMB      83              0.0000000000
     10225        83  DOPC      H5S            36.4560066407      -14.8369530374        9.1816088568  MEMB      83              0.0000000000
     10226        83  DOPC      C26            34.3799405550      -15.3189379685        8.6582984927  MEMB      83              0.0000000000
     10227        83  DOPC      H6R            33.9713115892      -14.2877752430        8.5946839629  MEMB      83              0.0000000000
     10228        83  DOPC      H6S            33.5744997542      -16.0297850715        8.9416408398  MEMB      83              0.0000000000
     10229        83  DOPC      C27            34.7031447350      -15.7525317517        7.2695331217  MEMB      83              0.0000000000
     10230        83  DOPC      H7R            35.4128085610      -16.6073145502        7.2628319340  MEMB      83              0.0000000000
     10231        83  DOPC      H7S            35.0887685777      -14.8324887001        6.7805176968  MEMB      83              0.0000000000
     10232        83  DOPC      C28            33.4129407394      -16.1870010336        6.5520717162  MEMB      83              0.0000000000
     10233        83  DOPC      H8R            32.8060973777      -15.2563956947        6.5460776008  MEMB      83              0.0000000000
     10234        83  DOPC      H8S            32.8858958829      -16.9725467270        7.1347058791  MEMB      83              0.0000000000
     10235        83  DOPC      C29            33.7790959276      -16.6985489824        5.2177381058  MEMB      83              0.0000000000
     10236        83  DOPC      H9R            34.0208637248      -17.7577385219        5.0455004932  MEMB      83              0.0000000000
     10237        83  DOPC      C210           33.7612682264      -15.8491827161        4.0788187127  MEMB      83              0.0000000000
     10238        83  DOPC      H10R           33.6595171879      -16.4358472147        3.1539020526  MEMB      83              0.0000000000
     10239        83  DOPC      C211           33.4572572238      -14.3710447299        4.0397703994  MEMB      83              0.0000000000
     10240        83  DOPC      H11R           34.2339948537      -13.8306315915        4.6219680330  MEMB      83              0.0000000000
     10241        83  DOPC      H11S           32.4808239362      -14.1714041065        4.5307313998  MEMB      83              0.0000000000
     10242        83  DOPC      C212           33.4782702652      -13.7822829513        2.6155991966  MEMB      83              0.0000000000
     10243        83  DOPC      H12R           33.1852532769      -12.7114254263        2.6571469656  MEMB      83              0.0000000000
     10244        83  DOPC      H12S           32.7980747854      -14.3431111976        1.9394872889  MEMB      83              0.0000000000
     10245        83  DOPC      C213           34.9649870983      -13.7617636632        2.0640300904  MEMB      83              0.0000000000
     10246        83  DOPC      H13R           35.3876423125      -14.7658263916        1.8459892682  MEMB      83              0.0000000000
     10247        83  DOPC      H13S           35.6669305765      -13.0856822445        2.5974249982  MEMB      83              0.0000000000
     10248        83  DOPC      C214           34.9610475616      -13.3275479938        0.5627008570  MEMB      83              0.0000000000
     10249        83  DOPC      H14R           34.2959171629      -12.4570260973        0.3780010739  MEMB      83              0.0000000000
     10250        83  DOPC      H14S           34.7318688115      -14.1333913346       -0.1669658604  MEMB      83              0.0000000000
     10251        83  DOPC      C215           36.3933128542      -12.8942413206        0.0890681004  MEMB      83              0.0000000000
     10252        83  DOPC      H15R           36.5654546950      -11.9772671235        0.6922655684  MEMB      83              0.0000000000
     10253        83  DOPC      H15S           36.2457019328      -12.5308340819       -0.9503870829  MEMB      83              0.0000000000
     10254        83  DOPC      C216           37.4479692591      -14.0070984670        0.3901309367  MEMB      83              0.0000000000
     10255        83  DOPC      H16R           36.8768330337      -14.9481729921        0.2401218733  MEMB      83              0.0000000000
     10256        83  DOPC      H16S           37.8305930113      -13.9303360539        1.4303358304  MEMB      83              0.0000000000
     10257        83  DOPC      C217           38.7546631361      -13.9666157192       -0.4839110234  MEMB      83              0.0000000000
     10258        83  DOPC      H17R           39.2150176461      -12.9556371856       -0.4660963909  MEMB      83              0.0000000000
     10259        83  DOPC      H17S           38.4245874726      -14.0935271793       -1.5371270385  MEMB      83              0.0000000000
     10260        83  DOPC      C218           39.9333888672      -14.9244568454       -0.0464569174  MEMB      83              0.0000000000
     10261        83  DOPC      H18R           40.2727136312      -14.7876729433        1.0025771692  MEMB      83              0.0000000000
     10262        83  DOPC      H18S           40.9011703468      -14.9362677849       -0.5919653843  MEMB      83              0.0000000000
     10263        83  DOPC      H18T           39.5081317480      -15.9508337540       -0.0411770896  MEMB      83              0.0000000000
     10264        83  DOPC      C33            33.6647439791      -19.6897174405       12.1485962160  MEMB      83              0.0000000000
     10265        83  DOPC      H3X            34.0717382794      -20.6775030566       12.4534836830  MEMB      83              0.0000000000
     10266        83  DOPC      H3Y            34.3516709823      -18.8222946193       12.2487465650  MEMB      83              0.0000000000
     10267        83  DOPC      C34            33.2675308841      -19.3725847947       10.6762617614  MEMB      83              0.0000000000
     10268        83  DOPC      H4X            33.5441254940      -18.3472691505       10.3498503158  MEMB      83              0.0000000000
     10269        83  DOPC      H4Y            32.1727356860      -19.4733841569       10.5163116305  MEMB      83              0.0000000000
     10270        83  DOPC      C35            33.9970384196      -20.3214892101        9.5943291632  MEMB      83              0.0000000000
     10271        83  DOPC      H5X            33.3914169414      -21.2287693624        9.3836486384  MEMB      83              0.0000000000
     10272        83  DOPC      H5Y            34.9444084810      -20.6719641392       10.0569071728  MEMB      83              0.0000000000
     10273        83  DOPC      C36            34.3344643474      -19.6422632091        8.2633120057  MEMB      83              0.0000000000
     10274        83  DOPC      H6X            33.3661905322      -19.3591811627        7.7978755125  MEMB      83              0.0000000000
     10275        83  DOPC      H6Y            35.0079157067      -18.7836877730        8.4721954039  MEMB      83              0.0000000000
     10276        83  DOPC      C37            34.9441810758      -20.5712860779        7.1648844600  MEMB      83              0.0000000000
     10277        83  DOPC      H7X            34.1913455931      -21.3863979343        7.2210229631  MEMB      83              0.0000000000
     10278        83  DOPC      H7Y            35.0393047684      -20.2008640161        6.1217830852  MEMB      83              0.0000000000
     10279        83  DOPC      C38            36.3242618066      -21.0278596892        7.6641488110  MEMB      83              0.0000000000
     10280        83  DOPC      H8X            36.6869698551      -21.7251678143        6.8789578550  MEMB      83              0.0000000000
     10281        83  DOPC      H8Y            36.2245418858      -21.6258065653        8.5951889809  MEMB      83              0.0000000000
     10282        83  DOPC      C39            37.2449502356      -19.8746815562        7.8752411900  MEMB      83              0.0000000000
     10283        83  DOPC      H9X            37.3645158800      -19.4855371004        8.8971372026  MEMB      83              0.0000000000
     10284        83  DOPC      C310           37.7259555714      -19.1133887773        6.8460508839  MEMB      83              0.0000000000
     10285        83  DOPC      H10X           38.2818559950      -18.2334285017        7.2019222728  MEMB      83              0.0000000000
     10286        83  DOPC      C311           37.5188391942      -19.2359344604        5.3077206595  MEMB      83              0.0000000000
     10287        83  DOPC      H11X           36.4967135275      -18.9626667306        4.9687435172  MEMB      83              0.0000000000
     10288        83  DOPC      H11Y           37.6492655110      -20.3067515452        5.0418988805  MEMB      83              0.0000000000
     10289        83  DOPC      C312           38.6226932990      -18.5510815618        4.4769599469  MEMB      83              0.0000000000
     10290        83  DOPC      H12X           39.6000152016      -19.0411033595        4.6745481900  MEMB      83              0.0000000000
     10291        83  DOPC      H12Y           38.8119878279      -17.5032324496        4.7939784383  MEMB      83              0.0000000000
     10292        83  DOPC      C313           38.3031464899      -18.5269353154        2.9671828007  MEMB      83              0.0000000000
     10293        83  DOPC      H13X           37.4939744823      -17.7752392349        2.8467054122  MEMB      83              0.0000000000
     10294        83  DOPC      H13Y           39.1470674050      -18.1822863675        2.3320962687  MEMB      83              0.0000000000
     10295        83  DOPC      C314           37.7009131400      -19.8328014051        2.3811818834  MEMB      83              0.0000000000
     10296        83  DOPC      H14X           38.3803731813      -20.6507909628        2.7029708071  MEMB      83              0.0000000000
     10297        83  DOPC      H14Y           36.7160290615      -19.8945552001        2.8915827076  MEMB      83              0.0000000000
     10298        83  DOPC      C315           37.5939163620      -19.8302351674        0.8151772436  MEMB      83              0.0000000000
     10299        83  DOPC      H15X           37.1494984042      -20.7938966870        0.4862843920  MEMB      83              0.0000000000
     10300        83  DOPC      H15Y           38.6285257086      -19.7923628189        0.4120996590  MEMB      83              0.0000000000
     10301        83  DOPC      C316           36.8221500184      -18.6463379479        0.2448086525  MEMB      83              0.0000000000
     10302        83  DOPC      H16X           37.2120194116      -17.6571162269        0.5669327034  MEMB      83              0.0000000000
     10303        83  DOPC      H16Y           36.9610680813      -18.6427175259       -0.8574667964  MEMB      83              0.0000000000
     10304        83  DOPC      C317           35.2724436745      -18.5880216885        0.6392683406  MEMB      83              0.0000000000
     10305        83  DOPC      H17X           34.8624706122      -19.5840695131        0.3669988463  MEMB      83              0.0000000000
     10306        83  DOPC      H17Y           35.1823852170      -18.6250146448        1.7459939167  MEMB      83              0.0000000000
     10307        83  DOPC      C318           34.5706437994      -17.4190776510        0.0140801668  MEMB      83              0.0000000000
     10308        83  DOPC      H18X           35.0277645979      -16.4931859178        0.4240630166  MEMB      83              0.0000000000
     10309        83  DOPC      H18Y           34.4478941557      -17.5528318263       -1.0819857446  MEMB      83              0.0000000000
     10310        83  DOPC      H18Z           33.5020458975      -17.4138440259        0.3180427975  MEMB      83              0.0000000000
     10311        84  23SM      N             -35.4799212968      -18.7479758774       28.1896400187  MEMB      84              0.0000000000
     10312        84  23SM      C15           -35.1205698017      -20.1333649773       27.6568040869  MEMB      84              0.0000000000
     10313        84  23SM      H15A          -36.0272421597      -20.7200024768       27.6425973974  MEMB      84              0.0000000000
     10314        84  23SM      H15B          -34.2974840179      -20.5938742768       28.1829799406  MEMB      84              0.0000000000
     10315        84  23SM      H15C          -34.7223874842      -20.0228813182       26.6589843051  MEMB      84              0.0000000000
     10316        84  23SM      C14           -36.2380266350      -18.9234547944       29.4339120772  MEMB      84              0.0000000000
     10317        84  23SM      H14A          -35.5699311006      -19.4292362950       30.1152590089  MEMB      84              0.0000000000
     10318        84  23SM      H14B          -37.1406558036      -19.4871521973       29.2497760705  MEMB      84              0.0000000000
     10319        84  23SM      H14C          -36.5116304165      -17.9813974723       29.8856522010  MEMB      84              0.0000000000
     10320        84  23SM      C13           -34.1862813282      -18.0344836890       28.5593594963  MEMB      84              0.0000000000
     10321        84  23SM      H13A          -33.6209810705      -18.6781055076       29.2170725815  MEMB      84              0.0000000000
     10322        84  23SM      H13B          -34.3889695880      -17.1837091924       29.1930000708  MEMB      84              0.0000000000
     10323        84  23SM      H13C          -33.5895898010      -17.9500150941       27.6631316276  MEMB      84              0.0000000000
     10324        84  23SM      C12           -36.2724089802      -18.0825841088       27.0667488897  MEMB      84              0.0000000000
     10325        84  23SM      H12A          -36.2882858160      -17.0078045940       27.1716154213  MEMB      84              0.0000000000
     10326        84  23SM      H12B          -37.3263061604      -18.3183934060       27.0570136529  MEMB      84              0.0000000000
     10327        84  23SM      C11           -35.7798839648      -18.2755300286       25.5705829267  MEMB      84              0.0000000000
     10328        84  23SM      H11A          -36.4324261416      -17.6139738306       24.9616059016  MEMB      84              0.0000000000
     10329        84  23SM      H11B          -35.8860668724      -19.3215152293       25.2114713856  MEMB      84              0.0000000000
     10330        84  23SM      P             -33.9411561013      -17.5687712729       23.8581919958  MEMB      84              0.0000000000
     10331        84  23SM      O13           -34.3574246187      -16.2520681901       23.4510062147  MEMB      84              0.0000000000
     10332        84  23SM      O14           -32.5060968255      -17.8140241892       23.7785475899  MEMB      84              0.0000000000
     10333        84  23SM      O11           -34.6485356641      -18.7316349692       23.0626481224  MEMB      84              0.0000000000
     10334        84  23SM      O12           -34.4358949128      -17.8554965005       25.3725585835  MEMB      84              0.0000000000
     10335        84  23SM      C1S           -35.6558487438      -18.3541300027       22.1372261614  MEMB      84              0.0000000000
     10336        84  23SM      H1S           -36.3173854886      -17.5477936198       22.5199948193  MEMB      84              0.0000000000
     10337        84  23SM      H1T           -36.4245876982      -19.1393391266       21.9734948194  MEMB      84              0.0000000000
     10338        84  23SM      NF            -36.1682525029      -17.4935890811       19.8376432829  MEMB      84              0.0000000000
     10339        84  23SM      HNF           -36.1722189556      -17.9165657264       18.9348235212  MEMB      84              0.0000000000
     10340        84  23SM      C2S           -35.1419258678      -18.0859052003       20.7210902929  MEMB      84              0.0000000000
     10341        84  23SM      H2S           -34.3564550953      -17.3001849843       20.7204605452  MEMB      84              0.0000000000
     10342        84  23SM      C3S           -34.5126538887      -19.3113867398       20.1000148096  MEMB      84              0.0000000000
     10343        84  23SM      H3S           -35.2413698139      -20.1462878020       20.1789727225  MEMB      84              0.0000000000
     10344        84  23SM      O3            -33.3004734207      -19.6275716995       20.7832639617  MEMB      84              0.0000000000
     10345        84  23SM      HO3           -33.2117224961      -19.0393482916       21.5367335698  MEMB      84              0.0000000000
     10346        84  23SM      C4S           -34.1261137916      -19.0602775878       18.6405971947  MEMB      84              0.0000000000
     10347        84  23SM      H4S           -33.3753654077      -18.2965870247       18.3892932346  MEMB      84              0.0000000000
     10348        84  23SM      C5S           -34.5572350016      -19.7534460610       17.5646972818  MEMB      84              0.0000000000
     10349        84  23SM      H5S           -35.2369780428      -20.5599463008       17.8769581756  MEMB      84              0.0000000000
     10350        84  23SM      C6S           -34.2784864758      -19.6456811098       16.0760975069  MEMB      84              0.0000000000
     10351        84  23SM      H6S           -35.2440177500      -19.7229667307       15.5319490527  MEMB      84              0.0000000000
     10352        84  23SM      H6T           -33.5879063967      -20.4744618455       15.8104984753  MEMB      84              0.0000000000
     10353        84  23SM      C7S           -33.4556357976      -18.4080995796       15.6350290212  MEMB      84              0.0000000000
     10354        84  23SM      H7S           -32.5751774750      -18.4743931207       16.3093575761  MEMB      84              0.0000000000
     10355        84  23SM      H7T           -34.0454355536      -17.5033392719       15.8955396930  MEMB      84              0.0000000000
     10356        84  23SM      C8S           -33.1437396139      -18.4030592460       14.1590571451  MEMB      84              0.0000000000
     10357        84  23SM      H8S           -32.7405047912      -17.4129007561       13.8568838672  MEMB      84              0.0000000000
     10358        84  23SM      H8T           -34.1055636335      -18.4338354309       13.6038382718  MEMB      84              0.0000000000
     10359        84  23SM      C9S           -32.2089639843      -19.5085446280       13.6146268577  MEMB      84              0.0000000000
     10360        84  23SM      H9S           -32.1376856875      -20.4566024758       14.1894538391  MEMB      84              0.0000000000
     10361        84  23SM      H9T           -31.1679552306      -19.1207856236       13.6308969746  MEMB      84              0.0000000000
     10362        84  23SM      C10S          -32.4203440081      -19.9689335001       12.1497068405  MEMB      84              0.0000000000
     10363        84  23SM      H10S          -33.4406882542      -20.3607265047       11.9504154670  MEMB      84              0.0000000000
     10364        84  23SM      H10T          -31.6558015932      -20.7491224865       11.9469734427  MEMB      84              0.0000000000
     10365        84  23SM      C11S          -32.1627959755      -18.8637526172       11.1121519064  MEMB      84              0.0000000000
     10366        84  23SM      H11S          -31.0683932217      -18.7092228660       11.2249536818  MEMB      84              0.0000000000
     10367        84  23SM      H11T          -32.6824598234      -17.9317278757       11.4213452685  MEMB      84              0.0000000000
     10368        84  23SM      C12S          -32.3771128166      -19.1124844852        9.5898853953  MEMB      84              0.0000000000
     10369        84  23SM      H12S          -33.3766763310      -19.5531712654        9.3874285014  MEMB      84              0.0000000000
     10370        84  23SM      H12T          -31.6248523375      -19.8959791654        9.3563017208  MEMB      84              0.0000000000
     10371        84  23SM      C13S          -32.1993240249      -17.9815980644        8.6163304267  MEMB      84              0.0000000000
     10372        84  23SM      H13S          -31.1669700909      -17.5711901801        8.6278148044  MEMB      84              0.0000000000
     10373        84  23SM      H13T          -32.8748941036      -17.2772299053        9.1471714574  MEMB      84              0.0000000000
     10374        84  23SM      C14S          -32.7604215962      -18.2041027421        7.1532235413  MEMB      84              0.0000000000
     10375        84  23SM      H14S          -32.9965885099      -17.1864614471        6.7751332943  MEMB      84              0.0000000000
     10376        84  23SM      H14T          -33.6546086086      -18.8619778063        7.1973922539  MEMB      84              0.0000000000
     10377        84  23SM      C15S          -31.8197641639      -19.0287157361        6.2582425016  MEMB      84              0.0000000000
     10378        84  23SM      H15S          -31.7148228882      -20.0696091874        6.6322064045  MEMB      84              0.0000000000
     10379        84  23SM      H15T          -30.8449111545      -18.5171525219        6.1089588236  MEMB      84              0.0000000000
     10380        84  23SM      C16S          -32.3648380394      -19.2171584143        4.7355892699  MEMB      84              0.0000000000
     10381        84  23SM      H16S          -33.4350335314      -19.4582404745        4.9113217486  MEMB      84              0.0000000000
     10382        84  23SM      H16T          -31.9975322124      -20.1640052296        4.2851570708  MEMB      84              0.0000000000
     10383        84  23SM      C17S          -32.4283290388      -18.0605779682        3.8489572422  MEMB      84              0.0000000000
     10384        84  23SM      H17S          -31.4565394818      -17.5252284777        3.9068092387  MEMB      84              0.0000000000
     10385        84  23SM      H17T          -33.1511312567      -17.3389682114        4.2861725590  MEMB      84              0.0000000000
     10386        84  23SM      C18S          -32.8905743451      -18.4777704670        2.3797998298  MEMB      84              0.0000000000
     10387        84  23SM      H18S          -32.0071298117      -18.9184078608        1.8702077474  MEMB      84              0.0000000000
     10388        84  23SM      H18T          -32.9750896883      -17.5020013009        1.8553452015  MEMB      84              0.0000000000
     10389        84  23SM      H18U          -33.8240675653      -19.0713267680        2.2768332556  MEMB      84              0.0000000000
     10390        84  23SM      C1F           -36.8663714363      -16.3404598900       20.0882353621  MEMB      84              0.0000000000
     10391        84  23SM      OF            -36.8256078117      -15.6548098383       21.0925936406  MEMB      84              0.0000000000
     10392        84  23SM      C2F           -37.6655870953      -15.8163548711       18.8492025639  MEMB      84              0.0000000000
     10393        84  23SM      H2F           -38.6762043152      -15.6350499072       19.2735874219  MEMB      84              0.0000000000
     10394        84  23SM      H2G           -37.7858973252      -16.6089862697       18.0800585978  MEMB      84              0.0000000000
     10395        84  23SM      C3F           -36.9587607570      -14.5785942383       18.2448074411  MEMB      84              0.0000000000
     10396        84  23SM      H3F           -35.8583119092      -14.6004359831       18.3959899550  MEMB      84              0.0000000000
     10397        84  23SM      H3G           -37.2032976717      -13.6781811133       18.8479485756  MEMB      84              0.0000000000
     10398        84  23SM      C4F           -37.3085649319      -14.3061323137       16.7818513211  MEMB      84              0.0000000000
     10399        84  23SM      H4F           -36.5250072181      -13.5817343710       16.4726489579  MEMB      84              0.0000000000
     10400        84  23SM      H4G           -38.2348212298      -13.7048406702       16.6601188131  MEMB      84              0.0000000000
     10401        84  23SM      C5F           -37.1534681083      -15.3996752307       15.6889045897  MEMB      84              0.0000000000
     10402        84  23SM      H5F           -37.8421881246      -16.2163757167       15.9938413393  MEMB      84              0.0000000000
     10403        84  23SM      H5G           -36.1886641900      -15.9474798225       15.7470833045  MEMB      84              0.0000000000
     10404        84  23SM      C6F           -37.3019747148      -14.9839444474       14.2366418903  MEMB      84              0.0000000000
     10405        84  23SM      H6F           -36.3192665393      -14.6214896339       13.8661935525  MEMB      84              0.0000000000
     10406        84  23SM      H6G           -38.1073839432      -14.2307179231       14.1014116352  MEMB      84              0.0000000000
     10407        84  23SM      C7F           -37.5593697131      -16.1623760510       13.2987389306  MEMB      84              0.0000000000
     10408        84  23SM      H7F           -37.2050699046      -15.8337627969       12.2983354084  MEMB      84              0.0000000000
     10409        84  23SM      H7G           -38.6519169423      -16.3637684590       13.2886073068  MEMB      84              0.0000000000
     10410        84  23SM      C8F           -36.7983805773      -17.4234603750       13.6643819875  MEMB      84              0.0000000000
     10411        84  23SM      H8F           -37.1725821802      -17.9436734660       14.5719461538  MEMB      84              0.0000000000
     10412        84  23SM      H8G           -35.7245800093      -17.2635941815       13.9004242210  MEMB      84              0.0000000000
     10413        84  23SM      C9F           -36.8336450060      -18.4242769232       12.5674564555  MEMB      84              0.0000000000
     10414        84  23SM      H9F           -36.1596164143      -18.1729927062       11.7207785160  MEMB      84              0.0000000000
     10415        84  23SM      H9G           -37.8055404078      -18.4767238017       12.0317417290  MEMB      84              0.0000000000
     10416        84  23SM      C10F          -36.4339461564      -19.8449263125       13.0804573716  MEMB      84              0.0000000000
     10417        84  23SM      H10F          -36.8429714699      -20.0061760137       14.1007603825  MEMB      84              0.0000000000
     10418        84  23SM      H10G          -35.3263122707      -19.9305492878       13.0687644612  MEMB      84              0.0000000000
     10419        84  23SM      C11F          -36.9780791934      -20.8531952798       12.0795284174  MEMB      84              0.0000000000
     10420        84  23SM      H11F          -38.0750946591      -20.7410777702       11.9442225988  MEMB      84              0.0000000000
     10421        84  23SM      H11G          -36.6828164232      -21.8197216243       12.5410131263  MEMB      84              0.0000000000
     10422        84  23SM      C12F          -36.0774620207      -20.8585281569       10.7873722065  MEMB      84              0.0000000000
     10423        84  23SM      H12F          -35.2033344611      -21.5017621818       11.0250103120  MEMB      84              0.0000000000
     10424        84  23SM      H12G          -35.5502701419      -19.9199254297       10.5127538630  MEMB      84              0.0000000000
     10425        84  23SM      C13F          -36.8102998603      -21.3728982912        9.5071027318  MEMB      84              0.0000000000
     10426        84  23SM      H13F          -37.1636590906      -22.3871142846        9.7913984501  MEMB      84              0.0000000000
     10427        84  23SM      H13G          -35.9679888414      -21.6090731606        8.8222277099  MEMB      84              0.0000000000
     10428        84  23SM      C14F          -37.8522021138      -20.3871599441        8.9812480565  MEMB      84              0.0000000000
     10429        84  23SM      H14F          -37.3018051954      -19.4714278587        8.6765872689  MEMB      84              0.0000000000
     10430        84  23SM      H14G          -38.4647211081      -20.1191936120        9.8685677380  MEMB      84              0.0000000000
     10431        84  23SM      C15F          -38.5995379280      -20.9663572405        7.8389732110  MEMB      84              0.0000000000
     10432        84  23SM      H15F          -39.4523784263      -20.2840013038        7.6355662794  MEMB      84              0.0000000000
     10433        84  23SM      H15G          -38.8355353159      -22.0038680933        8.1586568519  MEMB      84              0.0000000000
     10434        84  23SM      C16F          -37.8144368541      -21.0824333681        6.5016781649  MEMB      84              0.0000000000
     10435        84  23SM      H16F          -38.5440095330      -21.4692975150        5.7584558985  MEMB      84              0.0000000000
     10436        84  23SM      H16G          -36.9285138520      -21.7050980752        6.7501740174  MEMB      84              0.0000000000
     10437        84  23SM      C17F          -37.2679307597      -19.7666584820        5.9665078100  MEMB      84              0.0000000000
     10438        84  23SM      H17F          -36.5919923687      -19.2454761048        6.6777028353  MEMB      84              0.0000000000
     10439        84  23SM      H17G          -38.1365973544      -19.0791871453        5.8821124567  MEMB      84              0.0000000000
     10440        84  23SM      C18F          -36.5809307827      -20.0169880871        4.5972147817  MEMB      84              0.0000000000
     10441        84  23SM      H18F          -37.0938306356      -20.7651799266        3.9557600465  MEMB      84              0.0000000000
     10442        84  23SM      H18G          -35.5823989264      -20.4534852395        4.8133739108  MEMB      84              0.0000000000
     10443        84  23SM      C19F          -36.3956851080      -18.7027935740        3.6787423681  MEMB      84              0.0000000000
     10444        84  23SM      H19F          -35.6311272606      -18.8318466850        2.8830538343  MEMB      84              0.0000000000
     10445        84  23SM      H19G          -36.0391071375      -17.9705312597        4.4343645330  MEMB      84              0.0000000000
     10446        84  23SM      C20F          -37.7370111053      -18.2600147283        3.0244394330  MEMB      84              0.0000000000
     10447        84  23SM      H20F          -37.6503530806      -17.2010422260        2.6998026073  MEMB      84              0.0000000000
     10448        84  23SM      H20G          -38.5643064583      -18.2163378681        3.7647070074  MEMB      84              0.0000000000
     10449        84  23SM      C21F          -38.1420560935      -19.0599378169        1.7327806519  MEMB      84              0.0000000000
     10450        84  23SM      H21F          -39.0607476858      -18.5503573779        1.3713195810  MEMB      84              0.0000000000
     10451        84  23SM      H21G          -38.3404517556      -20.1320479934        1.9461813287  MEMB      84              0.0000000000
     10452        84  23SM      C22F          -37.1249136078      -18.8924685748        0.5960698691  MEMB      84              0.0000000000
     10453        84  23SM      H22F          -36.3783656542      -19.7024848388        0.7405015969  MEMB      84              0.0000000000
     10454        84  23SM      H22G          -36.5814811604      -17.9236409096        0.6154367146  MEMB      84              0.0000000000
     10455        84  23SM      C23F          -37.8256174390      -19.1412109875       -0.7250008795  MEMB      84              0.0000000000
     10456        84  23SM      H23F          -38.2825145311      -20.1533009115       -0.7602141934  MEMB      84              0.0000000000
     10457        84  23SM      H23G          -37.0602689709      -19.0874651400       -1.5285390421  MEMB      84              0.0000000000
     10458        84  23SM      H23H          -38.5766506312      -18.4034697170       -1.0799756131  MEMB      84              0.0000000000
     10459        85  DOPC      N              26.7487621856      -26.8953067805       18.8534507305  MEMB      85              0.0000000000
     10460        85  DOPC      C12            27.8921754271      -26.8447899877       17.8308195410  MEMB      85              0.0000000000
     10461        85  DOPC      H12A           28.2794718361      -25.8366369100       17.8361899647  MEMB      85              0.0000000000
     10462        85  DOPC      H12B           27.5308504899      -27.2139276093       16.8823566352  MEMB      85              0.0000000000
     10463        85  DOPC      C13            25.7384390205      -25.8895605810       18.3967610243  MEMB      85              0.0000000000
     10464        85  DOPC      H13A           26.1780000319      -24.9130681699       18.5369350982  MEMB      85              0.0000000000
     10465        85  DOPC      H13B           25.6878857347      -26.1028080305       17.3392308889  MEMB      85              0.0000000000
     10466        85  DOPC      H13C           24.8307075725      -25.8161471590       18.9773074270  MEMB      85              0.0000000000
     10467        85  DOPC      C14            27.2975509344      -26.5116406626       20.1842849735  MEMB      85              0.0000000000
     10468        85  DOPC      H14A           26.5363913727      -26.5182734228       20.9504389474  MEMB      85              0.0000000000
     10469        85  DOPC      H14B           28.0789240315      -27.1944846538       20.4835846064  MEMB      85              0.0000000000
     10470        85  DOPC      H14C           27.6459744173      -25.4961652044       20.0667660841  MEMB      85              0.0000000000
     10471        85  DOPC      C15            26.0759196053      -28.2421333105       18.9186267121  MEMB      85              0.0000000000
     10472        85  DOPC      H15A           25.6720389587      -28.2734173989       17.9174765166  MEMB      85              0.0000000000
     10473        85  DOPC      H15B           25.3095206451      -28.3799112113       19.6669913427  MEMB      85              0.0000000000
     10474        85  DOPC      H15C           26.7755289502      -29.0605304256       19.0033197384  MEMB      85              0.0000000000
     10475        85  DOPC      C11            29.0517976123      -27.9466724416       17.9953139311  MEMB      85              0.0000000000
     10476        85  DOPC      H11A           28.6074454435      -28.9512034545       17.8286113119  MEMB      85              0.0000000000
     10477        85  DOPC      H11B           29.7407016922      -27.6473441942       17.1766963262  MEMB      85              0.0000000000
     10478        85  DOPC      P              31.0412788994      -27.2404649750       19.4427709157  MEMB      85              0.0000000000
     10479        85  DOPC      O13            31.5085719595      -27.5435873390       20.8520714578  MEMB      85              0.0000000000
     10480        85  DOPC      O14            30.8818792144      -25.8242211376       18.9525593905  MEMB      85              0.0000000000
     10481        85  DOPC      O12            29.7385505613      -28.0134557356       19.2220159142  MEMB      85              0.0000000000
     10482        85  DOPC      O11            31.9127655788      -27.9799401516       18.3513254137  MEMB      85              0.0000000000
     10483        85  DOPC      C1             33.1262657563      -27.3059651113       17.9091043552  MEMB      85              0.0000000000
     10484        85  DOPC      HA             34.0189074579      -27.7547546860       18.3950053564  MEMB      85              0.0000000000
     10485        85  DOPC      HB             33.1424953726      -26.2255391785       18.1674401704  MEMB      85              0.0000000000
     10486        85  DOPC      C2             33.1900425126      -27.2731555555       16.2763790016  MEMB      85              0.0000000000
     10487        85  DOPC      HS             34.0993914785      -26.6863814879       16.0251782701  MEMB      85              0.0000000000
     10488        85  DOPC      O21            31.9792811114      -26.7482119114       15.8028559995  MEMB      85              0.0000000000
     10489        85  DOPC      C21            32.0858136722      -25.4699836563       15.2880340149  MEMB      85              0.0000000000
     10490        85  DOPC      O22            32.9243748735      -24.6749577444       15.5484323687  MEMB      85              0.0000000000
     10491        85  DOPC      C22            30.9269500383      -25.2807814337       14.3126636608  MEMB      85              0.0000000000
     10492        85  DOPC      H2R            30.0090046007      -25.7853321702       14.6829687749  MEMB      85              0.0000000000
     10493        85  DOPC      H2S            31.2312722491      -25.7699035425       13.3626801304  MEMB      85              0.0000000000
     10494        85  DOPC      C3             33.3216108122      -28.6921612055       15.6862160964  MEMB      85              0.0000000000
     10495        85  DOPC      HX             34.1615070150      -29.2895328626       16.1009965322  MEMB      85              0.0000000000
     10496        85  DOPC      HY             33.4868228674      -28.6368027637       14.5889646469  MEMB      85              0.0000000000
     10497        85  DOPC      O31            32.1036981932      -29.3895394882       15.9367343422  MEMB      85              0.0000000000
     10498        85  DOPC      C31            31.9887600061      -30.5609188270       15.3273955052  MEMB      85              0.0000000000
     10499        85  DOPC      O32            32.8228805301      -31.1721459384       14.6923744127  MEMB      85              0.0000000000
     10500        85  DOPC      C32            30.5959534031      -31.0444680008       15.4463623023  MEMB      85              0.0000000000
     10501        85  DOPC      H2X            30.5431359150      -31.9477613202       14.8016971855  MEMB      85              0.0000000000
     10502        85  DOPC      H2Y            30.3695083538      -31.2475713201       16.5149091898  MEMB      85              0.0000000000
     10503        85  DOPC      C23            30.7048860000      -23.7286353250       14.0727670127  MEMB      85              0.0000000000
     10504        85  DOPC      H3R            31.5527585180      -23.1684849841       13.6236957089  MEMB      85              0.0000000000
     10505        85  DOPC      H3S            30.4467122737      -23.2851103489       15.0581362160  MEMB      85              0.0000000000
     10506        85  DOPC      C24            29.4862041817      -23.4314925663       13.1077380249  MEMB      85              0.0000000000
     10507        85  DOPC      H4R            29.3646648145      -22.3278303355       13.1461892572  MEMB      85              0.0000000000
     10508        85  DOPC      H4S            28.6125651170      -23.9538858123       13.5529131809  MEMB      85              0.0000000000
     10509        85  DOPC      C25            29.6001219350      -24.0505819932       11.7717706373  MEMB      85              0.0000000000
     10510        85  DOPC      H5R            28.7683743612      -23.5818842231       11.2035816355  MEMB      85              0.0000000000
     10511        85  DOPC      H5S            29.2951248871      -25.1174246981       11.8278456606  MEMB      85              0.0000000000
     10512        85  DOPC      C26            30.9568588392      -23.8330153898       10.9938667272  MEMB      85              0.0000000000
     10513        85  DOPC      H6R            31.8230125401      -24.2357037124       11.5612646056  MEMB      85              0.0000000000
     10514        85  DOPC      H6S            31.0537488955      -22.7354142980       11.1360134316  MEMB      85              0.0000000000
     10515        85  DOPC      C27            31.0188112517      -24.1954463772        9.4614049892  MEMB      85              0.0000000000
     10516        85  DOPC      H7R            32.0605689501      -23.9685081281        9.1490574560  MEMB      85              0.0000000000
     10517        85  DOPC      H7S            30.3257474048      -23.5715156555        8.8575053867  MEMB      85              0.0000000000
     10518        85  DOPC      C28            30.6187780202      -25.7199529285        9.1852539038  MEMB      85              0.0000000000
     10519        85  DOPC      H8R            29.5579429859      -25.8158351587        9.5010961573  MEMB      85              0.0000000000
     10520        85  DOPC      H8S            31.1949856763      -26.3833633430        9.8651005605  MEMB      85              0.0000000000
     10521        85  DOPC      C29            30.8084276815      -25.9735225073        7.6978114458  MEMB      85              0.0000000000
     10522        85  DOPC      H9R            30.0330824536      -25.4857387742        7.0887908904  MEMB      85              0.0000000000
     10523        85  DOPC      C210           31.8214668272      -26.7732345486        7.1238848291  MEMB      85              0.0000000000
     10524        85  DOPC      H10R           31.9793454789      -26.7066755874        6.0373105528  MEMB      85              0.0000000000
     10525        85  DOPC      C211           32.9401737806      -27.5430705116        7.7776726935  MEMB      85              0.0000000000
     10526        85  DOPC      H11R           33.1787697632      -26.9495749123        8.6860542369  MEMB      85              0.0000000000
     10527        85  DOPC      H11S           33.8753112816      -27.6259677121        7.1835624790  MEMB      85              0.0000000000
     10528        85  DOPC      C212           32.6506842523      -28.9712799056        8.2619428063  MEMB      85              0.0000000000
     10529        85  DOPC      H12R           31.8466158908      -28.8508086855        9.0190956164  MEMB      85              0.0000000000
     10530        85  DOPC      H12S           33.4813194685      -29.4208354296        8.8469778194  MEMB      85              0.0000000000
     10531        85  DOPC      C213           32.3351302993      -30.0242542594        7.2472724272  MEMB      85              0.0000000000
     10532        85  DOPC      H13R           31.2907782542      -29.7138595059        7.0297742023  MEMB      85              0.0000000000
     10533        85  DOPC      H13S           32.3954603164      -31.0336452666        7.7075017609  MEMB      85              0.0000000000
     10534        85  DOPC      C214           33.0009793758      -30.0122341588        5.8754089533  MEMB      85              0.0000000000
     10535        85  DOPC      H14R           34.0536584322      -30.1859255084        6.1852785150  MEMB      85              0.0000000000
     10536        85  DOPC      H14S           32.9048954246      -29.0105534742        5.4045323557  MEMB      85              0.0000000000
     10537        85  DOPC      C215           32.5437064986      -30.9846170679        4.7735692053  MEMB      85              0.0000000000
     10538        85  DOPC      H15R           32.5005846518      -32.0223891352        5.1678928586  MEMB      85              0.0000000000
     10539        85  DOPC      H15S           33.2679300371      -30.9348471524        3.9325319095  MEMB      85              0.0000000000
     10540        85  DOPC      C216           31.1772515789      -30.5969038325        4.1293566675  MEMB      85              0.0000000000
     10541        85  DOPC      H16R           31.2465437592      -29.6524453489        3.5483942833  MEMB      85              0.0000000000
     10542        85  DOPC      H16S           30.5324648148      -30.4622619109        5.0240315483  MEMB      85              0.0000000000
     10543        85  DOPC      C217           30.5704898510      -31.7606655679        3.3216585825  MEMB      85              0.0000000000
     10544        85  DOPC      H17R           29.7030414101      -31.4502118564        2.7007935868  MEMB      85              0.0000000000
     10545        85  DOPC      H17S           30.1893204740      -32.5207556602        4.0367060992  MEMB      85              0.0000000000
     10546        85  DOPC      C218           31.5649109962      -32.4741370215        2.3480182275  MEMB      85              0.0000000000
     10547        85  DOPC      H18R           31.0716883154      -33.2187275126        1.6872328286  MEMB      85              0.0000000000
     10548        85  DOPC      H18S           32.3461394444      -33.0422731734        2.8968587890  MEMB      85              0.0000000000
     10549        85  DOPC      H18T           31.9381030615      -31.6663103665        1.6828386316  MEMB      85              0.0000000000
     10550        85  DOPC      C33            29.6940525112      -29.9309272850       14.8121018263  MEMB      85              0.0000000000
     10551        85  DOPC      H3X            30.2225234897      -28.9566519391       14.7357691011  MEMB      85              0.0000000000
     10552        85  DOPC      H3Y            28.8861926530      -29.7611427411       15.5556449148  MEMB      85              0.0000000000
     10553        85  DOPC      C34            29.1405407752      -30.3980119528       13.4914496975  MEMB      85              0.0000000000
     10554        85  DOPC      H4X            28.4293129710      -29.6235384048       13.1327480008  MEMB      85              0.0000000000
     10555        85  DOPC      H4Y            28.4828128121      -31.2930481927       13.5164486796  MEMB      85              0.0000000000
     10556        85  DOPC      C35            30.1770640056      -30.5411915045       12.3709671682  MEMB      85              0.0000000000
     10557        85  DOPC      H5X            30.7724433675      -31.4083408859       12.7285936018  MEMB      85              0.0000000000
     10558        85  DOPC      H5Y            30.9193984182      -29.7167075813       12.3119196643  MEMB      85              0.0000000000
     10559        85  DOPC      C36            29.5555223692      -30.7272365883       10.9986438951  MEMB      85              0.0000000000
     10560        85  DOPC      H6X            28.9002126763      -29.8642647228       10.7533487377  MEMB      85              0.0000000000
     10561        85  DOPC      H6Y            30.4214897888      -30.8643116658       10.3162711310  MEMB      85              0.0000000000
     10562        85  DOPC      C37            28.7231512812      -31.9740819685       10.7409201465  MEMB      85              0.0000000000
     10563        85  DOPC      H7X            29.4252145352      -32.8338684968       10.7877696860  MEMB      85              0.0000000000
     10564        85  DOPC      H7Y            27.9155113894      -32.0241594648       11.5021898353  MEMB      85              0.0000000000
     10565        85  DOPC      C38            28.1002876535      -31.9668429431        9.4127964372  MEMB      85              0.0000000000
     10566        85  DOPC      H8X            27.8460181819      -33.0182023017        9.1591988612  MEMB      85              0.0000000000
     10567        85  DOPC      H8Y            28.9148938001      -31.7761852452        8.6817780388  MEMB      85              0.0000000000
     10568        85  DOPC      C39            26.9256428177      -30.9970250053        9.2749177566  MEMB      85              0.0000000000
     10569        85  DOPC      H9X            25.9807458130      -31.3292260177        9.7296838389  MEMB      85              0.0000000000
     10570        85  DOPC      C310           27.0424475218      -29.6966424607        8.7077934841  MEMB      85              0.0000000000
     10571        85  DOPC      H10X           26.1051954504      -29.1249116632        8.7762213077  MEMB      85              0.0000000000
     10572        85  DOPC      C311           28.1887513522      -29.0242608006        8.1269064192  MEMB      85              0.0000000000
     10573        85  DOPC      H11X           29.0384992321      -29.7378015605        8.0711475363  MEMB      85              0.0000000000
     10574        85  DOPC      H11Y           28.5279318274      -28.1045113321        8.6497242566  MEMB      85              0.0000000000
     10575        85  DOPC      C312           27.9674563288      -28.5914636835        6.6934814118  MEMB      85              0.0000000000
     10576        85  DOPC      H12X           27.2794224013      -29.2726945690        6.1486377971  MEMB      85              0.0000000000
     10577        85  DOPC      H12Y           28.8672887166      -28.7168437311        6.0540265089  MEMB      85              0.0000000000
     10578        85  DOPC      C313           27.4635754019      -27.0947413273        6.6866789263  MEMB      85              0.0000000000
     10579        85  DOPC      H13X           26.5105313298      -27.1572122820        7.2542400467  MEMB      85              0.0000000000
     10580        85  DOPC      H13Y           28.2347810418      -26.4134352320        7.1054687182  MEMB      85              0.0000000000
     10581        85  DOPC      C314           26.8354294666      -26.6961759147        5.3069040313  MEMB      85              0.0000000000
     10582        85  DOPC      H14X           25.9674855433      -27.3770656266        5.1750574123  MEMB      85              0.0000000000
     10583        85  DOPC      H14Y           26.4354405811      -25.6607400250        5.3538306222  MEMB      85              0.0000000000
     10584        85  DOPC      C315           27.9169688362      -26.7203897184        4.2475395155  MEMB      85              0.0000000000
     10585        85  DOPC      H15X           28.0988624962      -27.7536673718        3.8820631338  MEMB      85              0.0000000000
     10586        85  DOPC      H15Y           28.8068146206      -26.2478563353        4.7157349792  MEMB      85              0.0000000000
     10587        85  DOPC      C316           27.5527470881      -25.8928369598        3.0414996537  MEMB      85              0.0000000000
     10588        85  DOPC      H16X           26.5960308936      -26.2858099700        2.6358059131  MEMB      85              0.0000000000
     10589        85  DOPC      H16Y           27.2974829370      -24.8619006281        3.3675845518  MEMB      85              0.0000000000
     10590        85  DOPC      C317           28.6266519130      -25.7846001364        1.9452003161  MEMB      85              0.0000000000
     10591        85  DOPC      H17X           29.3672273225      -25.1268823755        2.4484666104  MEMB      85              0.0000000000
     10592        85  DOPC      H17Y           29.0468413135      -26.7841586072        1.7030348538  MEMB      85              0.0000000000
     10593        85  DOPC      C318           28.2112779575      -25.1404477977        0.6136667684  MEMB      85              0.0000000000
     10594        85  DOPC      H18X           29.1459196155      -24.8999850261        0.0632631495  MEMB      85              0.0000000000
     10595        85  DOPC      H18Y           27.4810609197      -25.8143495086        0.1167158596  MEMB      85              0.0000000000
     10596        85  DOPC      H18Z           27.6006354847      -24.2564862274        0.8965944385  MEMB      85              0.0000000000
     10597        86  DOPC      N             -17.3403960691       36.7415463434       19.8607443594  MEMB      86              0.0000000000
     10598        86  DOPC      C12           -17.6704874583       37.4810531401       18.5792720604  MEMB      86              0.0000000000
     10599        86  DOPC      H12A          -17.4855150727       36.7038679413       17.8525200987  MEMB      86              0.0000000000
     10600        86  DOPC      H12B          -16.9244963195       38.2504152247       18.4451866697  MEMB      86              0.0000000000
     10601        86  DOPC      C13           -16.0285053745       36.0418332516       19.8392411959  MEMB      86              0.0000000000
     10602        86  DOPC      H13A          -15.8908400672       35.4811994445       20.7520052278  MEMB      86              0.0000000000
     10603        86  DOPC      H13B          -15.9870679285       35.4125321744       18.9625069593  MEMB      86              0.0000000000
     10604        86  DOPC      H13C          -15.2071654579       36.7256143413       19.6835370933  MEMB      86              0.0000000000
     10605        86  DOPC      C14           -18.3065520901       35.6937048660       20.1114891626  MEMB      86              0.0000000000
     10606        86  DOPC      H14A          -18.1178245530       35.0137590468       19.2938977933  MEMB      86              0.0000000000
     10607        86  DOPC      H14B          -17.9379625903       35.1653536935       20.9783150899  MEMB      86              0.0000000000
     10608        86  DOPC      H14C          -19.3485578982       35.9692755879       20.1799334718  MEMB      86              0.0000000000
     10609        86  DOPC      C15           -17.4067061757       37.7159759710       21.0352946939  MEMB      86              0.0000000000
     10610        86  DOPC      H15A          -16.5832308282       38.4061908690       20.9262453356  MEMB      86              0.0000000000
     10611        86  DOPC      H15B          -17.3867020348       37.1334196865       21.9444857064  MEMB      86              0.0000000000
     10612        86  DOPC      H15C          -18.3024774137       38.3164857909       21.0934479588  MEMB      86              0.0000000000
     10613        86  DOPC      C11           -19.0059299852       38.2553809361       18.4769028283  MEMB      86              0.0000000000
     10614        86  DOPC      H11A          -18.8599979167       39.1679426771       19.0935519084  MEMB      86              0.0000000000
     10615        86  DOPC      H11B          -19.2324486002       38.5137565373       17.4203744044  MEMB      86              0.0000000000
     10616        86  DOPC      P             -21.1375970249       36.7734455152       18.2472650844  MEMB      86              0.0000000000
     10617        86  DOPC      O13           -21.9929692335       37.7670536820       17.5400166778  MEMB      86              0.0000000000
     10618        86  DOPC      O14           -21.7910081126       35.8152767949       19.1517718574  MEMB      86              0.0000000000
     10619        86  DOPC      O12           -20.0313066616       37.5387191261       19.0653916487  MEMB      86              0.0000000000
     10620        86  DOPC      O11           -20.3271377197       36.0580902745       17.0926104357  MEMB      86              0.0000000000
     10621        86  DOPC      C1            -20.4486152118       34.6819643290       17.1418417393  MEMB      86              0.0000000000
     10622        86  DOPC      HA            -21.4413461126       34.1835209743       17.1228590320  MEMB      86              0.0000000000
     10623        86  DOPC      HB            -19.7769350245       34.2609887054       17.9202671666  MEMB      86              0.0000000000
     10624        86  DOPC      C2            -19.7547684477       34.1347947842       15.8078298166  MEMB      86              0.0000000000
     10625        86  DOPC      HS            -19.8196595026       33.0288313549       15.8912248846  MEMB      86              0.0000000000
     10626        86  DOPC      O21           -18.4457116813       34.5975447478       15.7107103216  MEMB      86              0.0000000000
     10627        86  DOPC      C21           -17.4672046126       33.9080032611       16.2620006810  MEMB      86              0.0000000000
     10628        86  DOPC      O22           -17.5757930438       32.9172762317       17.0145980593  MEMB      86              0.0000000000
     10629        86  DOPC      C22           -16.1403241601       34.2837813090       15.6854096891  MEMB      86              0.0000000000
     10630        86  DOPC      H2R           -15.3635039431       33.6355099240       16.1443384238  MEMB      86              0.0000000000
     10631        86  DOPC      H2S           -16.0066507031       35.3667505111       15.8942875427  MEMB      86              0.0000000000
     10632        86  DOPC      C3            -20.4607229534       34.5762393903       14.5680702548  MEMB      86              0.0000000000
     10633        86  DOPC      HX            -21.5251040048       34.2608386480       14.6120713698  MEMB      86              0.0000000000
     10634        86  DOPC      HY            -20.0005483027       34.1147095788       13.6683198576  MEMB      86              0.0000000000
     10635        86  DOPC      O31           -20.2924964794       36.0090586222       14.3865869327  MEMB      86              0.0000000000
     10636        86  DOPC      C31           -21.3056391084       36.5570413680       13.7106229813  MEMB      86              0.0000000000
     10637        86  DOPC      O32           -22.4209547006       36.0589094220       13.4875562091  MEMB      86              0.0000000000
     10638        86  DOPC      C32           -20.9568122094       37.9778276479       13.2155018475  MEMB      86              0.0000000000
     10639        86  DOPC      H2X           -20.3584240807       38.4821228588       14.0041328075  MEMB      86              0.0000000000
     10640        86  DOPC      H2Y           -20.3643655582       37.8448935861       12.2850951137  MEMB      86              0.0000000000
     10641        86  DOPC      C23           -16.1559141840       34.2178358247       14.1511948686  MEMB      86              0.0000000000
     10642        86  DOPC      H3R           -16.5179186320       33.2596138217       13.7209804767  MEMB      86              0.0000000000
     10643        86  DOPC      H3S           -15.1163942880       34.4012102374       13.8046501498  MEMB      86              0.0000000000
     10644        86  DOPC      C24           -16.8963854751       35.3940190715       13.4893695889  MEMB      86              0.0000000000
     10645        86  DOPC      H4R           -16.6413579944       36.3972545478       13.8928550922  MEMB      86              0.0000000000
     10646        86  DOPC      H4S           -17.9894229012       35.1952265754       13.4808985118  MEMB      86              0.0000000000
     10647        86  DOPC      C25           -16.6167656388       35.5645075490       12.0118966672  MEMB      86              0.0000000000
     10648        86  DOPC      H5R           -16.8216520566       34.5747316118       11.5507173953  MEMB      86              0.0000000000
     10649        86  DOPC      H5S           -15.5436586042       35.7869183009       11.8294254920  MEMB      86              0.0000000000
     10650        86  DOPC      C26           -17.3956178830       36.7297718439       11.2674475094  MEMB      86              0.0000000000
     10651        86  DOPC      H6R           -16.5904068965       37.4886333645       11.1670210091  MEMB      86              0.0000000000
     10652        86  DOPC      H6S           -18.1382833321       37.1708650408       11.9661644776  MEMB      86              0.0000000000
     10653        86  DOPC      C27           -17.9502916038       36.3860200909        9.8298847712  MEMB      86              0.0000000000
     10654        86  DOPC      H7R           -17.1498037657       36.3258048645        9.0618258042  MEMB      86              0.0000000000
     10655        86  DOPC      H7S           -18.5567044251       37.2415308702        9.4628892049  MEMB      86              0.0000000000
     10656        86  DOPC      C28           -18.8583864256       35.0995976293        9.6280197644  MEMB      86              0.0000000000
     10657        86  DOPC      H8R           -18.1305537988       34.3647782607       10.0337547295  MEMB      86              0.0000000000
     10658        86  DOPC      H8S           -19.1000255124       34.9176833258        8.5589837079  MEMB      86              0.0000000000
     10659        86  DOPC      C29           -20.1101785721       35.1800957972       10.5004358861  MEMB      86              0.0000000000
     10660        86  DOPC      H9R           -19.8994922000       35.3857684066       11.5602986478  MEMB      86              0.0000000000
     10661        86  DOPC      C210          -21.3927002555       35.1267807249       10.0281867325  MEMB      86              0.0000000000
     10662        86  DOPC      H10R          -22.2365365254       35.2135394460       10.7284814110  MEMB      86              0.0000000000
     10663        86  DOPC      C211          -21.8282079594       34.8605241927        8.5658785930  MEMB      86              0.0000000000
     10664        86  DOPC      H11R          -22.8393360366       34.4013268805        8.5330293570  MEMB      86              0.0000000000
     10665        86  DOPC      H11S          -21.0905751052       34.1346441787        8.1617539758  MEMB      86              0.0000000000
     10666        86  DOPC      C212          -21.6881030500       36.1098590314        7.6888360867  MEMB      86              0.0000000000
     10667        86  DOPC      H12R          -20.6798044796       36.5759489531        7.7092097183  MEMB      86              0.0000000000
     10668        86  DOPC      H12S          -22.4719652547       36.8372501649        7.9901387014  MEMB      86              0.0000000000
     10669        86  DOPC      C213          -21.9762956909       35.8170303339        6.2093461635  MEMB      86              0.0000000000
     10670        86  DOPC      H13R          -22.6091519140       36.5912481426        5.7251972598  MEMB      86              0.0000000000
     10671        86  DOPC      H13S          -22.3632821905       34.7813672314        6.0999666985  MEMB      86              0.0000000000
     10672        86  DOPC      C214          -20.6716863203       35.8935487934        5.4797811362  MEMB      86              0.0000000000
     10673        86  DOPC      H14R          -19.9579512805       35.1633439671        5.9176210737  MEMB      86              0.0000000000
     10674        86  DOPC      H14S          -20.0139444044       36.7637055498        5.6907868425  MEMB      86              0.0000000000
     10675        86  DOPC      C215          -20.7390694982       35.5251583665        3.9529261605  MEMB      86              0.0000000000
     10676        86  DOPC      H15R          -20.7955918269       34.4251268870        3.8078177971  MEMB      86              0.0000000000
     10677        86  DOPC      H15S          -19.7505537842       35.8571079758        3.5695636034  MEMB      86              0.0000000000
     10678        86  DOPC      C216          -21.8797528053       36.1905407494        3.2460669176  MEMB      86              0.0000000000
     10679        86  DOPC      H16R          -21.9651779349       37.2262799003        3.6388369368  MEMB      86              0.0000000000
     10680        86  DOPC      H16S          -22.7978984171       35.6397584374        3.5426613008  MEMB      86              0.0000000000
     10681        86  DOPC      C217          -21.9582581763       36.2564119300        1.7418530969  MEMB      86              0.0000000000
     10682        86  DOPC      H17R          -21.0924547469       36.8871177068        1.4470383693  MEMB      86              0.0000000000
     10683        86  DOPC      H17S          -22.8518036910       36.8678446144        1.4927606540  MEMB      86              0.0000000000
     10684        86  DOPC      C218          -22.0781366929       34.8394105508        1.1292265501  MEMB      86              0.0000000000
     10685        86  DOPC      H18R          -21.1412782708       34.3155241560        1.4158625308  MEMB      86              0.0000000000
     10686        86  DOPC      H18S          -22.4245575129       34.8202375718        0.0737907934  MEMB      86              0.0000000000
     10687        86  DOPC      H18T          -22.8886779773       34.2966949790        1.6610194732  MEMB      86              0.0000000000
     10688        86  DOPC      C33           -22.3353001305       38.6724833077       12.8622677543  MEMB      86              0.0000000000
     10689        86  DOPC      H3X           -22.9725258554       38.7690727349       13.7672182121  MEMB      86              0.0000000000
     10690        86  DOPC      H3Y           -22.8942757301       38.1573100436       12.0520435121  MEMB      86              0.0000000000
     10691        86  DOPC      C34           -22.1781107244       40.1395224962       12.3343127988  MEMB      86              0.0000000000
     10692        86  DOPC      H4X           -21.9864110115       40.7810058298       13.2209192901  MEMB      86              0.0000000000
     10693        86  DOPC      H4Y           -23.1309604666       40.4527972880       11.8565497503  MEMB      86              0.0000000000
     10694        86  DOPC      C35           -21.0555399614       40.3818198003       11.2620374692  MEMB      86              0.0000000000
     10695        86  DOPC      H5X           -20.1528649712       39.9746568170       11.7657413205  MEMB      86              0.0000000000
     10696        86  DOPC      H5Y           -20.8435681029       41.4678615272       11.1625277021  MEMB      86              0.0000000000
     10697        86  DOPC      C36           -21.2447494366       39.7715015197        9.8849125745  MEMB      86              0.0000000000
     10698        86  DOPC      H6X           -21.4613115637       38.6841595119        9.8134345727  MEMB      86              0.0000000000
     10699        86  DOPC      H6Y           -22.1126489614       40.2657426664        9.3982939439  MEMB      86              0.0000000000
     10700        86  DOPC      C37           -19.9861681911       40.0375398877        9.0714823777  MEMB      86              0.0000000000
     10701        86  DOPC      H7X           -19.6027162992       41.0151122838        9.4343015725  MEMB      86              0.0000000000
     10702        86  DOPC      H7Y           -19.2486819652       39.2871200224        9.4282801432  MEMB      86              0.0000000000
     10703        86  DOPC      C38           -20.0674003009       39.7255246582        7.6029546780  MEMB      86              0.0000000000
     10704        86  DOPC      H8X           -20.6147148737       38.7590115131        7.5780526692  MEMB      86              0.0000000000
     10705        86  DOPC      H8Y           -19.1352756769       39.4414135458        7.0693395915  MEMB      86              0.0000000000
     10706        86  DOPC      C39           -20.8340640468       40.8319784248        6.8616985447  MEMB      86              0.0000000000
     10707        86  DOPC      H9X           -21.7913786499       41.0184206119        7.3704108943  MEMB      86              0.0000000000
     10708        86  DOPC      C310          -20.5490828843       41.5214308521        5.7780571288  MEMB      86              0.0000000000
     10709        86  DOPC      H10X          -21.3329316808       42.1632472452        5.3495091889  MEMB      86              0.0000000000
     10710        86  DOPC      C311          -19.2933595511       41.4337205720        4.9896988807  MEMB      86              0.0000000000
     10711        86  DOPC      H11X          -18.4144334555       41.3735817709        5.6665979526  MEMB      86              0.0000000000
     10712        86  DOPC      H11Y          -18.9658650933       42.3592732717        4.4696791934  MEMB      86              0.0000000000
     10713        86  DOPC      C312          -19.1990548776       40.3730818906        3.9524715006  MEMB      86              0.0000000000
     10714        86  DOPC      H12X          -19.1347509357       39.3768012092        4.4399243489  MEMB      86              0.0000000000
     10715        86  DOPC      H12Y          -18.1922912909       40.4684363587        3.4924107606  MEMB      86              0.0000000000
     10716        86  DOPC      C313          -20.3328403180       40.3384214549        2.8929888511  MEMB      86              0.0000000000
     10717        86  DOPC      H13X          -21.1753463900       39.9507779396        3.5047377767  MEMB      86              0.0000000000
     10718        86  DOPC      H13Y          -20.5630833625       41.3567483192        2.5130939094  MEMB      86              0.0000000000
     10719        86  DOPC      C314          -20.0903919973       39.4028018759        1.6605984645  MEMB      86              0.0000000000
     10720        86  DOPC      H14X          -19.7816069927       38.4035165833        2.0353001321  MEMB      86              0.0000000000
     10721        86  DOPC      H14Y          -21.0750495195       39.1124868608        1.2357603410  MEMB      86              0.0000000000
     10722        86  DOPC      C315          -19.0027005240       39.8528126138        0.7666606051  MEMB      86              0.0000000000
     10723        86  DOPC      H15X          -17.9950408322       39.6802436726        1.2015901280  MEMB      86              0.0000000000
     10724        86  DOPC      H15Y          -19.1393333647       40.9463963350        0.6262045262  MEMB      86              0.0000000000
     10725        86  DOPC      C316          -18.9095593620       39.1060602371       -0.6477677726  MEMB      86              0.0000000000
     10726        86  DOPC      H16X          -18.0126779909       39.4298563464       -1.2179263301  MEMB      86              0.0000000000
     10727        86  DOPC      H16Y          -18.8804261231       38.0390235208       -0.3397017377  MEMB      86              0.0000000000
     10728        86  DOPC      C317          -20.1358937873       39.3871309920       -1.4767080052  MEMB      86              0.0000000000
     10729        86  DOPC      H17X          -19.9759376824       38.8858271864       -2.4551924822  MEMB      86              0.0000000000
     10730        86  DOPC      H17Y          -20.9890146809       38.8598243759       -0.9987398481  MEMB      86              0.0000000000
     10731        86  DOPC      C318          -20.4189630352       40.8885980239       -1.8412809530  MEMB      86              0.0000000000
     10732        86  DOPC      H18X          -19.5306319985       41.3238407446       -2.3470001213  MEMB      86              0.0000000000
     10733        86  DOPC      H18Y          -21.2767863255       40.8078377120       -2.5426644855  MEMB      86              0.0000000000
     10734        86  DOPC      H18Z          -20.7026654445       41.5350722751       -0.9834323244  MEMB      86              0.0000000000
     10735        87  DOPE      N              38.4257003087       21.9920673769       17.7179856486  MEMB      87              0.0000000000
     10736        87  DOPE      HN1            39.2119010461       21.5101409066       18.1988550328  MEMB      87              0.0000000000
     10737        87  DOPE      HN2            38.1571782317       21.3372875891       16.9559100763  MEMB      87              0.0000000000
     10738        87  DOPE      HN3            38.7079738850       22.9044869277       17.3063885955  MEMB      87              0.0000000000
     10739        87  DOPE      C12            37.1448092702       22.0395414878       18.5790260954  MEMB      87              0.0000000000
     10740        87  DOPE      H12A           36.2575124610       21.7469767482       17.9778344635  MEMB      87              0.0000000000
     10741        87  DOPE      H12B           37.0036487318       23.0774837566       18.9492562351  MEMB      87              0.0000000000
     10742        87  DOPE      C11            37.2339313159       21.0001699698       19.6503633982  MEMB      87              0.0000000000
     10743        87  DOPE      H11A           36.5089883908       21.1559015007       20.4777245039  MEMB      87              0.0000000000
     10744        87  DOPE      H11B           38.1796062602       21.0678627922       20.2295329577  MEMB      87              0.0000000000
     10745        87  DOPE      P              35.7823867703       18.9922464412       19.2499282170  MEMB      87              0.0000000000
     10746        87  DOPE      O13            34.9218574952       19.7070657566       18.2774699429  MEMB      87              0.0000000000
     10747        87  DOPE      O14            35.3870018091       18.9925515866       20.7117551251  MEMB      87              0.0000000000
     10748        87  DOPE      O11            35.9673451254       17.5107743554       18.6913909649  MEMB      87              0.0000000000
     10749        87  DOPE      O12            37.2714006953       19.6955526257       19.1220806049  MEMB      87              0.0000000000
     10750        87  DOPE      C1             36.8208170805       16.6194663886       19.3838515832  MEMB      87              0.0000000000
     10751        87  DOPE      HA             36.2888014621       16.0531235603       20.1779147945  MEMB      87              0.0000000000
     10752        87  DOPE      HB             37.5584047835       17.1473874367       20.0254002630  MEMB      87              0.0000000000
     10753        87  DOPE      C2             37.6834292292       15.7475346607       18.3993550559  MEMB      87              0.0000000000
     10754        87  DOPE      HS             38.5505712440       15.4271464236       19.0155835273  MEMB      87              0.0000000000
     10755        87  DOPE      O21            38.0418849817       16.4746015328       17.2488568512  MEMB      87              0.0000000000
     10756        87  DOPE      C21            38.9479789893       17.4651488032       17.5232852353  MEMB      87              0.0000000000
     10757        87  DOPE      O22            39.7456332507       17.4762364244       18.4609216575  MEMB      87              0.0000000000
     10758        87  DOPE      C22            38.9238150780       18.5046582678       16.3447074434  MEMB      87              0.0000000000
     10759        87  DOPE      H2R            38.4771548793       19.4686664628       16.6695210342  MEMB      87              0.0000000000
     10760        87  DOPE      H2S            38.4454509277       18.1366306172       15.4119457352  MEMB      87              0.0000000000
     10761        87  DOPE      C3             36.9494128122       14.5391943697       17.8411866120  MEMB      87              0.0000000000
     10762        87  DOPE      HX             36.7561750792       13.8725344362       18.7086797548  MEMB      87              0.0000000000
     10763        87  DOPE      HY             37.6860186822       13.9129351294       17.2938912805  MEMB      87              0.0000000000
     10764        87  DOPE      O31            35.7138228548       14.8334609495       17.0849201175  MEMB      87              0.0000000000
     10765        87  DOPE      C31            35.8566827490       14.7740869875       15.7874184726  MEMB      87              0.0000000000
     10766        87  DOPE      O32            36.9084905363       14.5139932871       15.1685047428  MEMB      87              0.0000000000
     10767        87  DOPE      C32            34.5765054690       15.2435334018       15.0971611730  MEMB      87              0.0000000000
     10768        87  DOPE      H2X            33.9664283686       14.3719793612       14.7769740147  MEMB      87              0.0000000000
     10769        87  DOPE      H2Y            34.0619969672       15.8942992224       15.8361513235  MEMB      87              0.0000000000
     10770        87  DOPE      C23            40.3979337973       18.8401077476       15.9800110387  MEMB      87              0.0000000000
     10771        87  DOPE      H3R            41.1215441778       18.0068221963       16.1078556754  MEMB      87              0.0000000000
     10772        87  DOPE      H3S            40.6685259666       19.7529305798       16.5525979790  MEMB      87              0.0000000000
     10773        87  DOPE      C24            40.5173566164       19.2768172508       14.4909834484  MEMB      87              0.0000000000
     10774        87  DOPE      H4R            41.5416239926       19.7029608323       14.4309935348  MEMB      87              0.0000000000
     10775        87  DOPE      H4S            39.7846691251       20.0219912502       14.1138816095  MEMB      87              0.0000000000
     10776        87  DOPE      C25            40.3979946414       18.0579446654       13.5944806728  MEMB      87              0.0000000000
     10777        87  DOPE      H5R            39.4834528090       17.4698737682       13.8227501622  MEMB      87              0.0000000000
     10778        87  DOPE      H5S            41.2302462880       17.3634394278       13.8380802601  MEMB      87              0.0000000000
     10779        87  DOPE      C26            40.4503232803       18.4022557436       12.0879751667  MEMB      87              0.0000000000
     10780        87  DOPE      H6R            41.5162485869       18.5943862980       11.8405683323  MEMB      87              0.0000000000
     10781        87  DOPE      H6S            39.8234321979       19.2645506352       11.7752834216  MEMB      87              0.0000000000
     10782        87  DOPE      C27            39.9150313973       17.1899710380       11.2190751732  MEMB      87              0.0000000000
     10783        87  DOPE      H7R            38.8426899144       17.1196842919       11.5009700564  MEMB      87              0.0000000000
     10784        87  DOPE      H7S            40.4789475631       16.2941183959       11.5563697943  MEMB      87              0.0000000000
     10785        87  DOPE      C28            40.3389088061       17.1978841711        9.7368512191  MEMB      87              0.0000000000
     10786        87  DOPE      H8R            40.2138673155       16.1229937935        9.4852629032  MEMB      87              0.0000000000
     10787        87  DOPE      H8S            41.4203171258       17.4512947216        9.7625427840  MEMB      87              0.0000000000
     10788        87  DOPE      C29            39.7524918832       18.1664664794        8.7912123667  MEMB      87              0.0000000000
     10789        87  DOPE      H9R            40.0604590908       19.1868091610        9.0633461371  MEMB      87              0.0000000000
     10790        87  DOPE      C210           38.8427951483       17.9801989953        7.8607331029  MEMB      87              0.0000000000
     10791        87  DOPE      H10R           38.4948756889       18.8557865743        7.2930201643  MEMB      87              0.0000000000
     10792        87  DOPE      C211           38.1436144085       16.5867388251        7.5518232203  MEMB      87              0.0000000000
     10793        87  DOPE      H11R           38.4134617496       15.7233172738        8.1968092867  MEMB      87              0.0000000000
     10794        87  DOPE      H11S           38.4909550643       16.3691191290        6.5191964957  MEMB      87              0.0000000000
     10795        87  DOPE      C212           36.5712056342       16.6520953028        7.4415771038  MEMB      87              0.0000000000
     10796        87  DOPE      H12R           36.0485308038       16.9402228850        8.3786548046  MEMB      87              0.0000000000
     10797        87  DOPE      H12S           36.2071957792       15.6219927151        7.2398183612  MEMB      87              0.0000000000
     10798        87  DOPE      C213           35.8912313620       17.5346250965        6.3552503591  MEMB      87              0.0000000000
     10799        87  DOPE      H13R           36.2686664614       18.5511841551        6.5970595386  MEMB      87              0.0000000000
     10800        87  DOPE      H13S           34.7818031522       17.4892491407        6.3930772877  MEMB      87              0.0000000000
     10801        87  DOPE      C214           36.2920531627       17.1035554256        4.9640021581  MEMB      87              0.0000000000
     10802        87  DOPE      H14R           36.0670317677       16.0247336026        4.8231837746  MEMB      87              0.0000000000
     10803        87  DOPE      H14S           37.3752182679       17.2995895903        4.8135198477  MEMB      87              0.0000000000
     10804        87  DOPE      C215           35.5703649662       17.9784027789        3.9183685248  MEMB      87              0.0000000000
     10805        87  DOPE      H15R           35.7233053126       19.0132688796        4.2925112103  MEMB      87              0.0000000000
     10806        87  DOPE      H15S           34.5056526216       17.6672048736        3.8562011301  MEMB      87              0.0000000000
     10807        87  DOPE      C216           36.1887247613       17.8340993550        2.4543526637  MEMB      87              0.0000000000
     10808        87  DOPE      H16R           37.2993769297       17.8393210166        2.4270432978  MEMB      87              0.0000000000
     10809        87  DOPE      H16S           35.8030207135       18.6929628939        1.8645165113  MEMB      87              0.0000000000
     10810        87  DOPE      C217           35.6108601686       16.6261701215        1.6789692794  MEMB      87              0.0000000000
     10811        87  DOPE      H17R           36.1902303040       16.6579031774        0.7315281087  MEMB      87              0.0000000000
     10812        87  DOPE      H17S           34.5186487936       16.6661558534        1.4794787231  MEMB      87              0.0000000000
     10813        87  DOPE      C218           35.7837254566       15.2052333552        2.2661989662  MEMB      87              0.0000000000
     10814        87  DOPE      H18R           35.1622794953       15.0050663049        3.1651186798  MEMB      87              0.0000000000
     10815        87  DOPE      H18S           36.8586210401       15.0412049267        2.4942664229  MEMB      87              0.0000000000
     10816        87  DOPE      H18T           35.4540820390       14.4535269477        1.5174692114  MEMB      87              0.0000000000
     10817        87  DOPE      C33            34.8567420070       15.9554542876       13.7488599016  MEMB      87              0.0000000000
     10818        87  DOPE      H3X            33.8522876879       16.2611435599       13.3856155025  MEMB      87              0.0000000000
     10819        87  DOPE      H3Y            35.2789800735       15.1747093090       13.0806730352  MEMB      87              0.0000000000
     10820        87  DOPE      C34            35.8131994992       17.1411218915       13.8241850999  MEMB      87              0.0000000000
     10821        87  DOPE      H4X            35.4554324762       17.8090240392       14.6367308008  MEMB      87              0.0000000000
     10822        87  DOPE      H4Y            36.8741071693       16.8523952844       13.9836621354  MEMB      87              0.0000000000
     10823        87  DOPE      C35            35.7924402970       18.0785051681       12.5701599508  MEMB      87              0.0000000000
     10824        87  DOPE      H5X            34.7327831774       18.3957879202       12.4663352000  MEMB      87              0.0000000000
     10825        87  DOPE      H5Y            35.9334181274       17.4770918820       11.6467160208  MEMB      87              0.0000000000
     10826        87  DOPE      C36            36.5816272672       19.3274726999       12.6952173285  MEMB      87              0.0000000000
     10827        87  DOPE      H6X            37.6683048213       19.1585909338       12.5373187982  MEMB      87              0.0000000000
     10828        87  DOPE      H6Y            36.4142002949       19.8205223287       13.6766401104  MEMB      87              0.0000000000
     10829        87  DOPE      C37            36.2128310983       20.3730317909       11.5689965319  MEMB      87              0.0000000000
     10830        87  DOPE      H7X            36.5845951281       19.9046905277       10.6326370000  MEMB      87              0.0000000000
     10831        87  DOPE      H7Y            35.1246391906       20.5931629315       11.6102470518  MEMB      87              0.0000000000
     10832        87  DOPE      C38            36.9272749081       21.7396826866       11.8265082974  MEMB      87              0.0000000000
     10833        87  DOPE      H8X            37.9727918841       21.6160901349       12.1813889619  MEMB      87              0.0000000000
     10834        87  DOPE      H8Y            36.3878211767       21.9390804645       12.7770615412  MEMB      87              0.0000000000
     10835        87  DOPE      C39            36.6496438119       22.8082361921       10.8170388050  MEMB      87              0.0000000000
     10836        87  DOPE      H9X            35.7754015118       23.4167253878       11.0917047455  MEMB      87              0.0000000000
     10837        87  DOPE      C310           37.1468093087       22.8766501786        9.5877309303  MEMB      87              0.0000000000
     10838        87  DOPE      H10X           36.9473947729       23.7573438862        8.9595482750  MEMB      87              0.0000000000
     10839        87  DOPE      C311           38.1657358103       21.8073005885        9.0399203685  MEMB      87              0.0000000000
     10840        87  DOPE      H11X           38.8672179081       21.4683709617        9.8319876771  MEMB      87              0.0000000000
     10841        87  DOPE      H11Y           37.5384193060       20.9943549809        8.6157569809  MEMB      87              0.0000000000
     10842        87  DOPE      C312           39.0175996965       22.0100764644        7.7563696948  MEMB      87              0.0000000000
     10843        87  DOPE      H12X           39.5958719520       21.0640900307        7.6854330687  MEMB      87              0.0000000000
     10844        87  DOPE      H12Y           39.7213504813       22.8675984530        7.8172923365  MEMB      87              0.0000000000
     10845        87  DOPE      C313           38.0961641425       22.2262936397        6.5733051753  MEMB      87              0.0000000000
     10846        87  DOPE      H13X           37.3892275909       21.3902653484        6.3845767040  MEMB      87              0.0000000000
     10847        87  DOPE      H13Y           37.5652260688       23.1637004235        6.8447728636  MEMB      87              0.0000000000
     10848        87  DOPE      C314           38.8328318011       22.5753625823        5.2282015666  MEMB      87              0.0000000000
     10849        87  DOPE      H14X           39.4903897080       23.4636759195        5.3415076697  MEMB      87              0.0000000000
     10850        87  DOPE      H14Y           38.0799614894       22.8065926725        4.4445950595  MEMB      87              0.0000000000
     10851        87  DOPE      C315           39.5491062931       21.3939006864        4.5512846034  MEMB      87              0.0000000000
     10852        87  DOPE      H15X           40.5460958549       21.2607949510        5.0231065207  MEMB      87              0.0000000000
     10853        87  DOPE      H15Y           39.7650045610       21.7233402914        3.5124497034  MEMB      87              0.0000000000
     10854        87  DOPE      C316           38.7360994543       20.0883502210        4.3513734508  MEMB      87              0.0000000000
     10855        87  DOPE      H16X           38.1988720027       20.0556588511        3.3794479912  MEMB      87              0.0000000000
     10856        87  DOPE      H16Y           38.0251010120       19.8840424205        5.1802645798  MEMB      87              0.0000000000
     10857        87  DOPE      C317           39.6992986715       18.8845172886        4.1273044598  MEMB      87              0.0000000000
     10858        87  DOPE      H17X           40.4007537133       18.6683790870        4.9613106023  MEMB      87              0.0000000000
     10859        87  DOPE      H17Y           39.0560284399       18.0048308890        3.9112579625  MEMB      87              0.0000000000
     10860        87  DOPE      C318           40.5855843498       18.9545545131        2.8710636082  MEMB      87              0.0000000000
     10861        87  DOPE      H18X           40.7889369009       17.8966324487        2.5994582049  MEMB      87              0.0000000000
     10862        87  DOPE      H18Y           40.0875974773       19.5818502020        2.1011093173  MEMB      87              0.0000000000
     10863        87  DOPE      H18Z           41.5400964800       19.4625717753        3.1263014481  MEMB      87              0.0000000000
     10864        88  23SM      N             -25.8934625983       32.6302756507       28.0430785160  MEMB      88              0.0000000000
     10865        88  23SM      C15           -24.8204171076       31.6341225310       27.9164423988  MEMB      88              0.0000000000
     10866        88  23SM      H15A          -24.5686004866       31.6269569843       26.8662343003  MEMB      88              0.0000000000
     10867        88  23SM      H15B          -25.1692151851       30.6644107669       28.2395508642  MEMB      88              0.0000000000
     10868        88  23SM      H15C          -23.9280624729       31.8510480880       28.4848143379  MEMB      88              0.0000000000
     10869        88  23SM      C14           -27.2071853353       32.1740744450       27.3629125627  MEMB      88              0.0000000000
     10870        88  23SM      H14A          -27.1240921269       32.2323982001       26.2876945687  MEMB      88              0.0000000000
     10871        88  23SM      H14B          -28.0079189095       32.8318855925       27.6670677122  MEMB      88              0.0000000000
     10872        88  23SM      H14C          -27.4427376793       31.1873915694       27.7335498360  MEMB      88              0.0000000000
     10873        88  23SM      C13           -26.2623437710       32.8417366220       29.4982477494  MEMB      88              0.0000000000
     10874        88  23SM      H13A          -26.7805915001       31.9591314637       29.8429612348  MEMB      88              0.0000000000
     10875        88  23SM      H13B          -26.9064078003       33.7039431692       29.5886984228  MEMB      88              0.0000000000
     10876        88  23SM      H13C          -25.2934581790       32.9417620784       29.9647833020  MEMB      88              0.0000000000
     10877        88  23SM      C12           -25.4224501809       33.8527438717       27.4407128068  MEMB      88              0.0000000000
     10878        88  23SM      H12A          -24.6653585149       34.3846548007       27.9977432203  MEMB      88              0.0000000000
     10879        88  23SM      H12B          -26.2693077759       34.5193638992       27.5103546981  MEMB      88              0.0000000000
     10880        88  23SM      C11           -25.1104074215       33.9404548428       25.8875100235  MEMB      88              0.0000000000
     10881        88  23SM      H11A          -24.2426460512       33.2560617763       25.7738546342  MEMB      88              0.0000000000
     10882        88  23SM      H11B          -24.7776893701       34.9458032338       25.5515125215  MEMB      88              0.0000000000
     10883        88  23SM      P             -26.0989635440       32.5519147786       23.9685995067  MEMB      88              0.0000000000
     10884        88  23SM      O13           -25.4026284556       31.4183752420       24.5677972533  MEMB      88              0.0000000000
     10885        88  23SM      O14           -27.4172451020       32.2554365257       23.3056429015  MEMB      88              0.0000000000
     10886        88  23SM      O11           -25.1179660186       33.0739261256       22.8778733963  MEMB      88              0.0000000000
     10887        88  23SM      O12           -26.2546512636       33.5949433744       25.1311828841  MEMB      88              0.0000000000
     10888        88  23SM      C1S           -25.0593779084       34.4636239908       22.4557170418  MEMB      88              0.0000000000
     10889        88  23SM      H1S           -24.1293880137       34.9933243689       22.7538064600  MEMB      88              0.0000000000
     10890        88  23SM      H1T           -25.8942644038       35.0171769274       22.9362009678  MEMB      88              0.0000000000
     10891        88  23SM      NF            -26.4113759711       34.3796329927       20.4017726261  MEMB      88              0.0000000000
     10892        88  23SM      HNF           -26.4720354424       33.6245874911       19.7535166919  MEMB      88              0.0000000000
     10893        88  23SM      C2S           -25.0715481195       34.6073740765       20.9130194694  MEMB      88              0.0000000000
     10894        88  23SM      H2S           -24.8199900814       35.6540212900       20.6381211478  MEMB      88              0.0000000000
     10895        88  23SM      C3S           -24.1381187354       33.7309426787       20.1222154448  MEMB      88              0.0000000000
     10896        88  23SM      H3S           -24.5620990267       32.7143440865       20.2674355197  MEMB      88              0.0000000000
     10897        88  23SM      O3            -22.7943247085       33.8423243811       20.6157625355  MEMB      88              0.0000000000
     10898        88  23SM      HO3           -22.8327661558       34.3542575142       21.4269631755  MEMB      88              0.0000000000
     10899        88  23SM      C4S           -24.1077463393       34.0345850829       18.6409578506  MEMB      88              0.0000000000
     10900        88  23SM      H4S           -23.9189149851       35.0820035145       18.3630060081  MEMB      88              0.0000000000
     10901        88  23SM      C5S           -24.2088429282       33.1797038795       17.6244246672  MEMB      88              0.0000000000
     10902        88  23SM      H5S           -24.4280256955       32.1581517518       17.9685030789  MEMB      88              0.0000000000
     10903        88  23SM      C6S           -24.1098841455       33.5013085643       16.0952378852  MEMB      88              0.0000000000
     10904        88  23SM      H6S           -24.9735731222       33.1271543239       15.5050079002  MEMB      88              0.0000000000
     10905        88  23SM      H6T           -23.3768392015       32.8429747562       15.5818542946  MEMB      88              0.0000000000
     10906        88  23SM      C7S           -23.9286707109       35.0189227129       15.7024191915  MEMB      88              0.0000000000
     10907        88  23SM      H7S           -22.8728167541       35.2886140480       15.9186600226  MEMB      88              0.0000000000
     10908        88  23SM      H7T           -24.6359933644       35.6194551252       16.3134645390  MEMB      88              0.0000000000
     10909        88  23SM      C8S           -24.1835035056       35.3306454845       14.2735666603  MEMB      88              0.0000000000
     10910        88  23SM      H8S           -25.2673500791       35.1856596936       14.0771578522  MEMB      88              0.0000000000
     10911        88  23SM      H8T           -23.5294567420       34.6082111173       13.7400573700  MEMB      88              0.0000000000
     10912        88  23SM      C9S           -23.8348570913       36.8141128355       13.8586024903  MEMB      88              0.0000000000
     10913        88  23SM      H9S           -22.8461427104       37.2744361471       14.0704211042  MEMB      88              0.0000000000
     10914        88  23SM      H9T           -24.4186047265       37.4284289026       14.5770562104  MEMB      88              0.0000000000
     10915        88  23SM      C10S          -24.4539283046       37.2032385754       12.4658117162  MEMB      88              0.0000000000
     10916        88  23SM      H10S          -24.4653459266       38.3101276074       12.3710146042  MEMB      88              0.0000000000
     10917        88  23SM      H10T          -25.5043538662       36.8637163077       12.3407042409  MEMB      88              0.0000000000
     10918        88  23SM      C11S          -23.6865093062       36.5455142801       11.2895688601  MEMB      88              0.0000000000
     10919        88  23SM      H11S          -24.1088321474       35.5484043245       11.0411014433  MEMB      88              0.0000000000
     10920        88  23SM      H11T          -22.6137811421       36.4893483631       11.5731545258  MEMB      88              0.0000000000
     10921        88  23SM      C12S          -23.7420553910       37.3306374985        9.9904153287  MEMB      88              0.0000000000
     10922        88  23SM      H12S          -23.3542588552       38.3176600532       10.3216584716  MEMB      88              0.0000000000
     10923        88  23SM      H12T          -24.8123358467       37.4608054789        9.7223168603  MEMB      88              0.0000000000
     10924        88  23SM      C13S          -23.1930613479       36.5885684803        8.7602825367  MEMB      88              0.0000000000
     10925        88  23SM      H13S          -23.7395500383       35.6215015198        8.7815556900  MEMB      88              0.0000000000
     10926        88  23SM      H13T          -22.1268906347       36.3399897487        8.9495169448  MEMB      88              0.0000000000
     10927        88  23SM      C14S          -23.4052939074       37.2254470758        7.3967010909  MEMB      88              0.0000000000
     10928        88  23SM      H14S          -22.6896024401       38.0748951724        7.3733659156  MEMB      88              0.0000000000
     10929        88  23SM      H14T          -24.4471962977       37.5478670201        7.1850264374  MEMB      88              0.0000000000
     10930        88  23SM      C15S          -22.9886412216       36.4402955319        6.1356910617  MEMB      88              0.0000000000
     10931        88  23SM      H15S          -23.6569045757       35.5568207940        6.2206472275  MEMB      88              0.0000000000
     10932        88  23SM      H15T          -21.9278068453       36.1359509991        6.2634637966  MEMB      88              0.0000000000
     10933        88  23SM      C16S          -23.2617875442       37.1625536593        4.8443572996  MEMB      88              0.0000000000
     10934        88  23SM      H16S          -22.7929846371       38.1693830146        4.8153957055  MEMB      88              0.0000000000
     10935        88  23SM      H16T          -24.3539549734       37.0789367318        4.6586175716  MEMB      88              0.0000000000
     10936        88  23SM      C17S          -22.5811805464       36.3197186237        3.7779973819  MEMB      88              0.0000000000
     10937        88  23SM      H17S          -23.0390029362       35.3111151434        3.6917479884  MEMB      88              0.0000000000
     10938        88  23SM      H17T          -21.5172809845       36.3288613807        4.0979272869  MEMB      88              0.0000000000
     10939        88  23SM      C18S          -22.6408470026       36.9254782830        2.3250934403  MEMB      88              0.0000000000
     10940        88  23SM      H18S          -22.5460235374       36.1094513152        1.5771436052  MEMB      88              0.0000000000
     10941        88  23SM      H18T          -21.6913400683       37.4429065754        2.0700920659  MEMB      88              0.0000000000
     10942        88  23SM      H18U          -23.5504218242       37.5578059286        2.2404963236  MEMB      88              0.0000000000
     10943        88  23SM      C1F           -27.5447478431       35.0754135087       20.7491163885  MEMB      88              0.0000000000
     10944        88  23SM      OF            -27.5471958669       36.0455856686       21.4854102019  MEMB      88              0.0000000000
     10945        88  23SM      C2F           -28.8710037585       34.5319073746       20.1261283315  MEMB      88              0.0000000000
     10946        88  23SM      H2F           -29.6141946704       34.3729699009       20.9365153587  MEMB      88              0.0000000000
     10947        88  23SM      H2G           -28.7003865405       33.5628385175       19.6102634191  MEMB      88              0.0000000000
     10948        88  23SM      C3F           -29.4138964364       35.5871684085       19.1941781970  MEMB      88              0.0000000000
     10949        88  23SM      H3F           -29.3873161527       36.6269665131       19.5846071919  MEMB      88              0.0000000000
     10950        88  23SM      H3G           -30.4819860941       35.2834749752       19.2298919283  MEMB      88              0.0000000000
     10951        88  23SM      C4F           -28.6767356371       35.5784978766       17.7676112346  MEMB      88              0.0000000000
     10952        88  23SM      H4F           -28.7953912907       34.5116801855       17.4810074335  MEMB      88              0.0000000000
     10953        88  23SM      H4G           -27.6627174628       35.9333860165       18.0507051203  MEMB      88              0.0000000000
     10954        88  23SM      C5F           -29.4111850488       36.5526880443       16.7667483219  MEMB      88              0.0000000000
     10955        88  23SM      H5F           -29.6101867281       37.4258098675       17.4243032093  MEMB      88              0.0000000000
     10956        88  23SM      H5G           -30.3515229830       36.1215032194       16.3615756543  MEMB      88              0.0000000000
     10957        88  23SM      C6F           -28.5050064724       37.1886145268       15.7232663727  MEMB      88              0.0000000000
     10958        88  23SM      H6F           -27.6654590839       37.6767156878       16.2629311968  MEMB      88              0.0000000000
     10959        88  23SM      H6G           -29.0818706397       38.0886489493       15.4207984202  MEMB      88              0.0000000000
     10960        88  23SM      C7F           -28.0439290333       36.3101027701       14.5978531974  MEMB      88              0.0000000000
     10961        88  23SM      H7F           -27.3699827596       35.4655495131       14.8564015605  MEMB      88              0.0000000000
     10962        88  23SM      H7G           -27.3656750243       37.0008195959       14.0526892412  MEMB      88              0.0000000000
     10963        88  23SM      C8F           -28.9244430610       35.9283641146       13.3256358058  MEMB      88              0.0000000000
     10964        88  23SM      H8F           -29.4297438854       36.8288483457       12.9156118774  MEMB      88              0.0000000000
     10965        88  23SM      H8G           -29.8198273786       35.3644114916       13.6641109838  MEMB      88              0.0000000000
     10966        88  23SM      C9F           -28.1288000993       35.3272617559       12.2000577846  MEMB      88              0.0000000000
     10967        88  23SM      H9F           -27.4242031641       36.1159809131       11.8597840156  MEMB      88              0.0000000000
     10968        88  23SM      H9G           -28.9326837674       35.3049594782       11.4335112373  MEMB      88              0.0000000000
     10969        88  23SM      C10F          -27.5018949455       33.9596613242       12.4464515804  MEMB      88              0.0000000000
     10970        88  23SM      H10F          -28.2056698383       33.1391367500       12.7028916440  MEMB      88              0.0000000000
     10971        88  23SM      H10G          -26.7677298734       34.0773933387       13.2719589293  MEMB      88              0.0000000000
     10972        88  23SM      C11F          -26.7707605923       33.2186879614       11.3264281006  MEMB      88              0.0000000000
     10973        88  23SM      H11F          -25.8809857842       33.7887943752       10.9834990588  MEMB      88              0.0000000000
     10974        88  23SM      H11G          -27.4680464548       33.1444102243       10.4646880723  MEMB      88              0.0000000000
     10975        88  23SM      C12F          -26.2616833893       31.8187678500       11.8265706094  MEMB      88              0.0000000000
     10976        88  23SM      H12F          -27.0821275710       31.0849765934       11.9773788100  MEMB      88              0.0000000000
     10977        88  23SM      H12G          -25.7351513513       31.9480033912       12.7963050211  MEMB      88              0.0000000000
     10978        88  23SM      C13F          -25.3481965214       31.3101007996       10.7648241758  MEMB      88              0.0000000000
     10979        88  23SM      H13F          -24.4617642756       30.8121598118       11.2127235985  MEMB      88              0.0000000000
     10980        88  23SM      H13G          -24.9826225068       32.1095614738       10.0854572793  MEMB      88              0.0000000000
     10981        88  23SM      C14F          -26.0375066338       30.2266745214        9.8632200433  MEMB      88              0.0000000000
     10982        88  23SM      H14F          -26.4944616298       29.4683890292       10.5344255519  MEMB      88              0.0000000000
     10983        88  23SM      H14G          -25.2759406928       29.7307472327        9.2241619249  MEMB      88              0.0000000000
     10984        88  23SM      C15F          -27.1378851071       30.7815163575        8.9954220858  MEMB      88              0.0000000000
     10985        88  23SM      H15F          -26.6481239904       31.4834692602        8.2871016987  MEMB      88              0.0000000000
     10986        88  23SM      H15G          -27.9288886912       31.2097003565        9.6475660117  MEMB      88              0.0000000000
     10987        88  23SM      C16F          -27.7035638675       29.7127641952        8.0047199274  MEMB      88              0.0000000000
     10988        88  23SM      H16F          -28.2500767287       28.9176936742        8.5556336294  MEMB      88              0.0000000000
     10989        88  23SM      H16G          -26.8087600099       29.1248953727        7.7079737628  MEMB      88              0.0000000000
     10990        88  23SM      C17F          -28.4737702096       30.3508789937        6.8625950067  MEMB      88              0.0000000000
     10991        88  23SM      H17F          -28.7487880373       31.3765278554        7.1892921070  MEMB      88              0.0000000000
     10992        88  23SM      H17G          -29.4094929040       29.7694023482        6.7189681529  MEMB      88              0.0000000000
     10993        88  23SM      C18F          -27.7123940682       30.5121251652        5.5548835377  MEMB      88              0.0000000000
     10994        88  23SM      H18F          -26.8830089622       31.2467998923        5.6367032781  MEMB      88              0.0000000000
     10995        88  23SM      H18G          -28.4528708862       31.0706915331        4.9433129737  MEMB      88              0.0000000000
     10996        88  23SM      C19F          -27.1585377022       29.3852754161        4.7401348845  MEMB      88              0.0000000000
     10997        88  23SM      H19F          -27.9445890456       28.6170058764        4.5782510820  MEMB      88              0.0000000000
     10998        88  23SM      H19G          -26.3003454969       28.9024147808        5.2545979430  MEMB      88              0.0000000000
     10999        88  23SM      C20F          -26.5790046573       29.8005020867        3.3842391284  MEMB      88              0.0000000000
     11000        88  23SM      H20F          -26.0016731369       30.7490022378        3.4210703552  MEMB      88              0.0000000000
     11001        88  23SM      H20G          -27.4231142491       29.9986193480        2.6895818050  MEMB      88              0.0000000000
     11002        88  23SM      C21F          -25.7439552963       28.7033405976        2.7863421053  MEMB      88              0.0000000000
     11003        88  23SM      H21F          -26.3887447602       27.8000274894        2.7354256726  MEMB      88              0.0000000000
     11004        88  23SM      H21G          -24.7538734853       28.6154071167        3.2826552886  MEMB      88              0.0000000000
     11005        88  23SM      C22F          -25.4171212287       29.1871435992        1.3633787473  MEMB      88              0.0000000000
     11006        88  23SM      H22F          -24.6721929489       30.0100949161        1.3169681742  MEMB      88              0.0000000000
     11007        88  23SM      H22G          -26.3776229825       29.5472457825        0.9366649654  MEMB      88              0.0000000000
     11008        88  23SM      C23F          -24.9455657604       28.0182340966        0.4520341963  MEMB      88              0.0000000000
     11009        88  23SM      H23F          -25.6244999801       27.1389774304        0.4354015909  MEMB      88              0.0000000000
     11010        88  23SM      H23G          -23.9068699391       27.7997994285        0.7802397888  MEMB      88              0.0000000000
     11011        88  23SM      H23H          -24.8690674733       28.4321946214       -0.5761222006  MEMB      88              0.0000000000
     11012        89  CHL1      C3             35.6993510921      -22.4159063581       17.3458300000  MEMB      89              0.0000000000
     11013        89  CHL1      H3             36.2606387667      -21.4642060585       17.2294900000  MEMB      89              0.0000000000
     11014        89  CHL1      O3             35.1812991079      -22.4530610419       18.6541700000  MEMB      89              0.0000000000
     11015        89  CHL1      H3'            34.6018115536      -21.6910171185       18.7255100000  MEMB      89              0.0000000000
     11016        89  CHL1      C4             34.4969265053      -22.4689212942       16.3929700000  MEMB      89              0.0000000000
     11017        89  CHL1      H4A            33.9521313981      -23.3953611956       16.6744500000  MEMB      89              0.0000000000
     11018        89  CHL1      H4B            33.7811562994      -21.6369833926       16.5658000000  MEMB      89              0.0000000000
     11019        89  CHL1      C5             34.8898165792      -22.5782206180       14.8902600000  MEMB      89              0.0000000000
     11020        89  CHL1      C6             34.5021152740      -21.7265885009       13.9927700000  MEMB      89              0.0000000000
     11021        89  CHL1      H6             33.9065396270      -20.8379496748       14.2489000000  MEMB      89              0.0000000000
     11022        89  CHL1      C7             34.8696915630      -21.8461778047       12.5290700000  MEMB      89              0.0000000000
     11023        89  CHL1      H7A            34.0312699852      -21.4775306504       11.9002000000  MEMB      89              0.0000000000
     11024        89  CHL1      H7B            35.7678041016      -21.2225473048       12.3321200000  MEMB      89              0.0000000000
     11025        89  CHL1      C8             35.2784955876      -23.2599701575       12.1589000000  MEMB      89              0.0000000000
     11026        89  CHL1      H8             34.4167601017      -23.9566685630       12.0792500000  MEMB      89              0.0000000000
     11027        89  CHL1      C14            35.9511143334      -23.2539405943       10.7744100000  MEMB      89              0.0000000000
     11028        89  CHL1      H14            36.8403295409      -22.6226376763       10.9866800000  MEMB      89              0.0000000000
     11029        89  CHL1      C15            35.2328516414      -22.5442957134        9.6386000000  MEMB      89              0.0000000000
     11030        89  CHL1      H15A           34.2183096970      -22.9945646580        9.5908900000  MEMB      89              0.0000000000
     11031        89  CHL1      H15B           35.2420732702      -21.4335201308        9.6178700000  MEMB      89              0.0000000000
     11032        89  CHL1      C16            36.0351915836      -23.0780983713        8.4079000000  MEMB      89              0.0000000000
     11033        89  CHL1      H16A           35.3389043845      -23.5987438172        7.7162100000  MEMB      89              0.0000000000
     11034        89  CHL1      H16B           36.4776466455      -22.3018309282        7.7476200000  MEMB      89              0.0000000000
     11035        89  CHL1      C17            37.1302409887      -24.0867961495        8.9717400000  MEMB      89              0.0000000000
     11036        89  CHL1      H17            37.9621700675      -23.4176048446        9.2789900000  MEMB      89              0.0000000000
     11037        89  CHL1      C13            36.4794718455      -24.5515832444       10.2600600000  MEMB      89              0.0000000000
     11038        89  CHL1      C18            35.3947304629      -25.5624103915        9.9658100000  MEMB      89              0.0000000000
     11039        89  CHL1      H18A           34.8531907025      -25.2495172712        9.0475800000  MEMB      89              0.0000000000
     11040        89  CHL1      H18B           35.8143235957      -26.5735860511        9.7766500000  MEMB      89              0.0000000000
     11041        89  CHL1      H18C           34.5514303818      -25.6320056733       10.6857600000  MEMB      89              0.0000000000
     11042        89  CHL1      C12            37.4730446944      -25.1418043482       11.2286700000  MEMB      89              0.0000000000
     11043        89  CHL1      H12A           37.7190612727      -26.1642976507       10.8704800000  MEMB      89              0.0000000000
     11044        89  CHL1      H12B           38.3658239482      -24.4827822027       11.2829800000  MEMB      89              0.0000000000
     11045        89  CHL1      C11            36.8476866806      -25.2379461570       12.6600800000  MEMB      89              0.0000000000
     11046        89  CHL1      H11A           36.0486751842      -26.0097337837       12.6446400000  MEMB      89              0.0000000000
     11047        89  CHL1      H11B           37.5715703950      -25.6499817191       13.3952900000  MEMB      89              0.0000000000
     11048        89  CHL1      C9             36.2988084774      -23.9028819123       13.2352400000  MEMB      89              0.0000000000
     11049        89  CHL1      H9             37.1411432059      -23.1840433371       13.1453400000  MEMB      89              0.0000000000
     11050        89  CHL1      C10            35.7857700637      -23.8248228008       14.6881500000  MEMB      89              0.0000000000
     11051        89  CHL1      C19            35.0575097882      -25.1460269155       14.9662500000  MEMB      89              0.0000000000
     11052        89  CHL1      H19A           35.8115067054      -25.9575513034       14.8811300000  MEMB      89              0.0000000000
     11053        89  CHL1      H19B           34.6175814837      -25.1612442712       15.9863300000  MEMB      89              0.0000000000
     11054        89  CHL1      H19C           34.2914704682      -25.4059764533       14.2047200000  MEMB      89              0.0000000000
     11055        89  CHL1      C1             37.0687221177      -23.8089816288       15.6265100000  MEMB      89              0.0000000000
     11056        89  CHL1      H1A            37.6455281784      -24.7551429497       15.5465900000  MEMB      89              0.0000000000
     11057        89  CHL1      H1B            37.7726619211      -22.9635190586       15.4716200000  MEMB      89              0.0000000000
     11058        89  CHL1      C2             36.6497777932      -23.6117916682       17.1182300000  MEMB      89              0.0000000000
     11059        89  CHL1      H2A            37.5679538607      -23.3993433321       17.7065800000  MEMB      89              0.0000000000
     11060        89  CHL1      H2B            36.2132846517      -24.5242292755       17.5778500000  MEMB      89              0.0000000000
     11061        89  CHL1      C20            37.5185684482      -25.0421616784        7.8364500000  MEMB      89              0.0000000000
     11062        89  CHL1      H20            36.7084379684      -25.7757451535        7.6368200000  MEMB      89              0.0000000000
     11063        89  CHL1      C21            38.7295758794      -25.8966650217        8.2144700000  MEMB      89              0.0000000000
     11064        89  CHL1      H21A           39.0130221773      -26.5920053059        7.3956400000  MEMB      89              0.0000000000
     11065        89  CHL1      H21B           38.4334151319      -26.5234568026        9.0826500000  MEMB      89              0.0000000000
     11066        89  CHL1      H21C           39.6086541825      -25.2345178244        8.3664900000  MEMB      89              0.0000000000
     11067        89  CHL1      C22            37.8630712228      -24.2080781909        6.5579100000  MEMB      89              0.0000000000
     11068        89  CHL1      H22A           36.9227504264      -23.7293655259        6.2101300000  MEMB      89              0.0000000000
     11069        89  CHL1      H22B           38.5164734267      -23.4135225393        6.9775200000  MEMB      89              0.0000000000
     11070        89  CHL1      C23            38.4574067047      -24.9603120611        5.3963200000  MEMB      89              0.0000000000
     11071        89  CHL1      H23A           39.5045791716      -25.2805614755        5.5839400000  MEMB      89              0.0000000000
     11072        89  CHL1      H23B           37.8223616713      -25.8017090832        5.0454700000  MEMB      89              0.0000000000
     11073        89  CHL1      C24            38.4921120044      -24.0345594190        4.1785300000  MEMB      89              0.0000000000
     11074        89  CHL1      H24A           37.4039091797      -23.8988296671        4.0004400000  MEMB      89              0.0000000000
     11075        89  CHL1      H24B           38.9214467809      -23.0501011848        4.4628300000  MEMB      89              0.0000000000
     11076        89  CHL1      C25            39.2967513527      -24.5329759605        2.9478200000  MEMB      89              0.0000000000
     11077        89  CHL1      H25            40.3163453716      -24.7043718304        3.3544900000  MEMB      89              0.0000000000
     11078        89  CHL1      C26            38.6469491642      -25.8330336149        2.4274200000  MEMB      89              0.0000000000
     11079        89  CHL1      H26A           39.0103771799      -26.2918591748        1.4831100000  MEMB      89              0.0000000000
     11080        89  CHL1      H26B           38.8987280467      -26.6055270183        3.1851800000  MEMB      89              0.0000000000
     11081        89  CHL1      H26C           37.5595325186      -25.6537054178        2.2871500000  MEMB      89              0.0000000000
     11082        89  CHL1      C27            39.2596167899      -23.5691451073        1.8993700000  MEMB      89              0.0000000000
     11083        89  CHL1      H27A           39.7181112399      -23.8053501262        0.9153400000  MEMB      89              0.0000000000
     11084        89  CHL1      H27B           38.2051319411      -23.3295864456        1.6444400000  MEMB      89              0.0000000000
     11085        89  CHL1      H27C           39.6784776085      -22.5688585218        2.1408500000  MEMB      89              0.0000000000
     11086        90  DOPC      N             -32.8299953016      -27.1199826102       20.2894168722  MEMB      90              0.0000000000
     11087        90  DOPC      C12           -33.2982292498      -25.9277640360       19.4891219668  MEMB      90              0.0000000000
     11088        90  DOPC      H12A          -32.9914478153      -25.9845696391       18.4551691843  MEMB      90              0.0000000000
     11089        90  DOPC      H12B          -32.8245802171      -24.9928858731       19.7500043143  MEMB      90              0.0000000000
     11090        90  DOPC      C13           -33.2019854252      -28.3812577788       19.5202903722  MEMB      90              0.0000000000
     11091        90  DOPC      H13A          -32.9311271257      -29.2641833699       20.0801813909  MEMB      90              0.0000000000
     11092        90  DOPC      H13B          -34.2656272778      -28.4090237398       19.3351007625  MEMB      90              0.0000000000
     11093        90  DOPC      H13C          -32.7738747404      -28.3686641400       18.5288456433  MEMB      90              0.0000000000
     11094        90  DOPC      C14           -33.3828922143      -27.3752579887       21.6857592769  MEMB      90              0.0000000000
     11095        90  DOPC      H14A          -32.8689886724      -28.1317982768       22.2601723538  MEMB      90              0.0000000000
     11096        90  DOPC      H14B          -33.1692762751      -26.4477191119       22.1960923331  MEMB      90              0.0000000000
     11097        90  DOPC      H14C          -34.4439510412      -27.5132785119       21.5391151860  MEMB      90              0.0000000000
     11098        90  DOPC      C15           -31.3268904346      -27.0556588813       20.3318059268  MEMB      90              0.0000000000
     11099        90  DOPC      H15A          -31.0707821682      -27.0007969438       19.2840470276  MEMB      90              0.0000000000
     11100        90  DOPC      H15B          -30.9998681349      -28.0354982170       20.6470383480  MEMB      90              0.0000000000
     11101        90  DOPC      H15C          -31.0179359279      -26.2502860429       20.9816689755  MEMB      90              0.0000000000
     11102        90  DOPC      C11           -34.8329763922      -25.5950896358       19.6166082373  MEMB      90              0.0000000000
     11103        90  DOPC      H11A          -35.1218207620      -25.6225197190       20.6890529018  MEMB      90              0.0000000000
     11104        90  DOPC      H11B          -35.0981365051      -24.5570865607       19.3223960375  MEMB      90              0.0000000000
     11105        90  DOPC      P             -36.2738438611      -26.1020529815       17.5705700888  MEMB      90              0.0000000000
     11106        90  DOPC      O13           -37.3612320511      -25.1195486966       17.8927497151  MEMB      90              0.0000000000
     11107        90  DOPC      O14           -36.5852088930      -27.3016312856       16.7557666283  MEMB      90              0.0000000000
     11108        90  DOPC      O12           -35.6159530244      -26.5433282846       18.9147229556  MEMB      90              0.0000000000
     11109        90  DOPC      O11           -35.0302825780      -25.2450197359       16.9331879604  MEMB      90              0.0000000000
     11110        90  DOPC      C1            -34.0820660876      -25.9271975096       16.1344912628  MEMB      90              0.0000000000
     11111        90  DOPC      HA            -34.5896107962      -26.3750848059       15.2535165440  MEMB      90              0.0000000000
     11112        90  DOPC      HB            -33.5604474860      -26.6484170306       16.7993802799  MEMB      90              0.0000000000
     11113        90  DOPC      C2            -33.1415622454      -24.7879999490       15.6600625057  MEMB      90              0.0000000000
     11114        90  DOPC      HS            -33.0184622705      -24.1449183814       16.5576223338  MEMB      90              0.0000000000
     11115        90  DOPC      O21           -33.7128318936      -24.0602372333       14.5986339382  MEMB      90              0.0000000000
     11116        90  DOPC      C21           -34.4177619813      -22.9452468914       14.7563096349  MEMB      90              0.0000000000
     11117        90  DOPC      O22           -34.7755569666      -22.4690462049       15.7816477482  MEMB      90              0.0000000000
     11118        90  DOPC      C22           -34.9724715922      -22.4758536696       13.3692992064  MEMB      90              0.0000000000
     11119        90  DOPC      H2R           -35.7482823489      -21.7267164545       13.6361926571  MEMB      90              0.0000000000
     11120        90  DOPC      H2S           -35.4120981939      -23.3351087539       12.8190899948  MEMB      90              0.0000000000
     11121        90  DOPC      C3            -31.8429098113      -25.3591655185       15.0947235329  MEMB      90              0.0000000000
     11122        90  DOPC      HX            -31.2718790029      -26.0627774178       15.7375105334  MEMB      90              0.0000000000
     11123        90  DOPC      HY            -31.1435841936      -24.5093884791       14.9425921521  MEMB      90              0.0000000000
     11124        90  DOPC      O31           -32.1045476658      -26.0734772568       13.9142533862  MEMB      90              0.0000000000
     11125        90  DOPC      C31           -31.8878745932      -25.4399372262       12.7107042669  MEMB      90              0.0000000000
     11126        90  DOPC      O32           -31.4891697566      -24.3130061257       12.5100031401  MEMB      90              0.0000000000
     11127        90  DOPC      C32           -32.2697564569      -26.4938866514       11.6932395169  MEMB      90              0.0000000000
     11128        90  DOPC      H2X           -32.9751163625      -27.2149615927       12.1588995003  MEMB      90              0.0000000000
     11129        90  DOPC      H2Y           -32.6324596199      -25.9010543828       10.8264542099  MEMB      90              0.0000000000
     11130        90  DOPC      C23           -33.8200296025      -21.8211001703       12.5222206105  MEMB      90              0.0000000000
     11131        90  DOPC      H3R           -33.0040455524      -22.5569887839       12.3580284524  MEMB      90              0.0000000000
     11132        90  DOPC      H3S           -33.5278267201      -20.7854369574       12.7985179194  MEMB      90              0.0000000000
     11133        90  DOPC      C24           -34.3012084132      -21.4372428588       11.0986646751  MEMB      90              0.0000000000
     11134        90  DOPC      H4R           -33.4612738187      -21.0331861076       10.4940419715  MEMB      90              0.0000000000
     11135        90  DOPC      H4S           -35.0754997237      -20.6413830638       11.1361019842  MEMB      90              0.0000000000
     11136        90  DOPC      C25           -34.8111324952      -22.7198854517       10.3435012116  MEMB      90              0.0000000000
     11137        90  DOPC      H5R           -35.7768633527      -23.0646746730       10.7710592386  MEMB      90              0.0000000000
     11138        90  DOPC      H5S           -33.9796164212      -23.4333917506       10.5273783045  MEMB      90              0.0000000000
     11139        90  DOPC      C26           -34.8315358381      -22.4523739315        8.8492845781  MEMB      90              0.0000000000
     11140        90  DOPC      H6R           -34.8024579797      -23.4970279079        8.4722249604  MEMB      90              0.0000000000
     11141        90  DOPC      H6S           -33.9042304813      -21.8832401202        8.6245347406  MEMB      90              0.0000000000
     11142        90  DOPC      C27           -36.1428017567      -21.8196218319        8.4849164380  MEMB      90              0.0000000000
     11143        90  DOPC      H7R           -36.3400932221      -20.7910558235        8.8556564875  MEMB      90              0.0000000000
     11144        90  DOPC      H7S           -36.8926497395      -22.5416418748        8.8731642004  MEMB      90              0.0000000000
     11145        90  DOPC      C28           -36.3115796960      -21.7290158322        6.9677377647  MEMB      90              0.0000000000
     11146        90  DOPC      H8R           -37.3636002222      -21.4218390544        6.7854835586  MEMB      90              0.0000000000
     11147        90  DOPC      H8S           -36.3464976972      -22.6811776742        6.3963452122  MEMB      90              0.0000000000
     11148        90  DOPC      C29           -35.2443855606      -20.8707484344        6.2343280261  MEMB      90              0.0000000000
     11149        90  DOPC      H9R           -35.4489340274      -19.8049017243        6.4135793205  MEMB      90              0.0000000000
     11150        90  DOPC      C210          -34.1931725492      -21.2792445188        5.5941529670  MEMB      90              0.0000000000
     11151        90  DOPC      H10R          -33.5909342841      -20.4667360773        5.1615565579  MEMB      90              0.0000000000
     11152        90  DOPC      C211          -33.6970390729      -22.6754473705        5.3039427747  MEMB      90              0.0000000000
     11153        90  DOPC      H11R          -33.8678957143      -22.8934841353        4.2280300077  MEMB      90              0.0000000000
     11154        90  DOPC      H11S          -34.2192953936      -23.5141630304        5.8120034570  MEMB      90              0.0000000000
     11155        90  DOPC      C212          -32.1381623172      -22.7920077303        5.2182402348  MEMB      90              0.0000000000
     11156        90  DOPC      H12R          -31.7689672472      -23.4529246109        6.0313856549  MEMB      90              0.0000000000
     11157        90  DOPC      H12S          -31.6841603227      -21.8213537648        5.5115560980  MEMB      90              0.0000000000
     11158        90  DOPC      C213          -31.5133963075      -23.1796812229        3.8889563848  MEMB      90              0.0000000000
     11159        90  DOPC      H13R          -30.4178957011      -23.1254258826        4.0657493402  MEMB      90              0.0000000000
     11160        90  DOPC      H13S          -31.7589578355      -22.3885810572        3.1485635626  MEMB      90              0.0000000000
     11161        90  DOPC      C214          -31.9047030192      -24.5575618443        3.3769386682  MEMB      90              0.0000000000
     11162        90  DOPC      H14R          -33.0007548834      -24.5272863335        3.1978445983  MEMB      90              0.0000000000
     11163        90  DOPC      H14S          -31.7423853687      -25.2954885044        4.1914557238  MEMB      90              0.0000000000
     11164        90  DOPC      C215          -31.0044495332      -24.9786048733        2.1746163021  MEMB      90              0.0000000000
     11165        90  DOPC      H15R          -30.4095990741      -24.0901247387        1.8728283624  MEMB      90              0.0000000000
     11166        90  DOPC      H15S          -31.6532189436      -25.1729530295        1.2939080494  MEMB      90              0.0000000000
     11167        90  DOPC      C216          -30.1059799733      -26.2011318234        2.4392536524  MEMB      90              0.0000000000
     11168        90  DOPC      H16R          -30.8558672987      -27.0196848973        2.4835410474  MEMB      90              0.0000000000
     11169        90  DOPC      H16S          -29.5578745506      -26.1913879134        3.4055914393  MEMB      90              0.0000000000
     11170        90  DOPC      C217          -29.0938721123      -26.4813576272        1.3274812060  MEMB      90              0.0000000000
     11171        90  DOPC      H17R          -29.5589723859      -26.3404084687        0.3284126366  MEMB      90              0.0000000000
     11172        90  DOPC      H17S          -28.9155843543      -27.5720901887        1.4407811541  MEMB      90              0.0000000000
     11173        90  DOPC      C218          -27.7762989099      -25.7390692196        1.4605270790  MEMB      90              0.0000000000
     11174        90  DOPC      H18R          -27.1236321566      -26.1299576672        2.2701908429  MEMB      90              0.0000000000
     11175        90  DOPC      H18S          -27.8126805159      -24.6404077966        1.6215883763  MEMB      90              0.0000000000
     11176        90  DOPC      H18T          -27.2185290429      -25.9844164500        0.5315394739  MEMB      90              0.0000000000
     11177        90  DOPC      C33           -31.0249532993      -27.3976199503       11.1424538567  MEMB      90              0.0000000000
     11178        90  DOPC      H3X           -30.2245315662      -26.7119101515       10.7911020743  MEMB      90              0.0000000000
     11179        90  DOPC      H3Y           -31.3233210563      -27.9528434631       10.2275638928  MEMB      90              0.0000000000
     11180        90  DOPC      C34           -30.4879442196      -28.3570164211       12.2809434406  MEMB      90              0.0000000000
     11181        90  DOPC      H4X           -30.1115125204      -27.6665992709       13.0657644495  MEMB      90              0.0000000000
     11182        90  DOPC      H4Y           -29.6226867163      -28.9011703972       11.8455733723  MEMB      90              0.0000000000
     11183        90  DOPC      C35           -31.4758117482      -29.2987543398       12.9104703720  MEMB      90              0.0000000000
     11184        90  DOPC      H5X           -32.4597810586      -28.8427182984       13.1516274386  MEMB      90              0.0000000000
     11185        90  DOPC      H5Y           -30.9871951044      -29.5834046454       13.8667908493  MEMB      90              0.0000000000
     11186        90  DOPC      C36           -31.6793217239      -30.6601670200       12.2184020719  MEMB      90              0.0000000000
     11187        90  DOPC      H6X           -30.6633640414      -31.1080034773       12.1784773080  MEMB      90              0.0000000000
     11188        90  DOPC      H6Y           -32.3175111382      -31.2705302344       12.8925618817  MEMB      90              0.0000000000
     11189        90  DOPC      C37           -32.1602196020      -30.6540817867       10.7175294358  MEMB      90              0.0000000000
     11190        90  DOPC      H7X           -31.4333240926      -30.0760726195       10.1077352066  MEMB      90              0.0000000000
     11191        90  DOPC      H7Y           -32.3382301304      -31.7095275316       10.4197593889  MEMB      90              0.0000000000
     11192        90  DOPC      C38           -33.4950747800      -29.8274740071       10.5057236647  MEMB      90              0.0000000000
     11193        90  DOPC      H8X           -33.2482178958      -28.7569340109       10.3404162576  MEMB      90              0.0000000000
     11194        90  DOPC      H8Y           -34.0363751961      -29.8245148211       11.4759329101  MEMB      90              0.0000000000
     11195        90  DOPC      C39           -34.3371419253      -30.4021086051        9.3524456091  MEMB      90              0.0000000000
     11196        90  DOPC      H9X           -34.6889055922      -31.4395882181        9.4519339801  MEMB      90              0.0000000000
     11197        90  DOPC      C310          -34.9044679422      -29.6272819240        8.3850556489  MEMB      90              0.0000000000
     11198        90  DOPC      H10X          -35.4451589320      -30.0401592820        7.5206564153  MEMB      90              0.0000000000
     11199        90  DOPC      C311          -34.7888960275      -28.0986091610        8.2537314251  MEMB      90              0.0000000000
     11200        90  DOPC      H11X          -34.4770765423      -27.5639588853        9.1763570509  MEMB      90              0.0000000000
     11201        90  DOPC      H11Y          -35.6798056427      -27.5555048525        7.8721046936  MEMB      90              0.0000000000
     11202        90  DOPC      C312          -33.6446212893      -27.6228110687        7.2227503267  MEMB      90              0.0000000000
     11203        90  DOPC      H12X          -32.6144083321      -27.7158203691        7.6281284917  MEMB      90              0.0000000000
     11204        90  DOPC      H12Y          -33.6216751875      -26.5122202273        7.2423025615  MEMB      90              0.0000000000
     11205        90  DOPC      C313          -33.6875015223      -28.2799595678        5.7571711792  MEMB      90              0.0000000000
     11206        90  DOPC      H13X          -32.8060884938      -28.0200480296        5.1327684885  MEMB      90              0.0000000000
     11207        90  DOPC      H13Y          -33.2820232235      -29.2543905387        6.1041472903  MEMB      90              0.0000000000
     11208        90  DOPC      C314          -35.0186056385      -28.4388134295        4.9835096906  MEMB      90              0.0000000000
     11209        90  DOPC      H14X          -35.0958971625      -29.5099956942        4.6990530857  MEMB      90              0.0000000000
     11210        90  DOPC      H14Y          -35.8689021758      -28.2175947638        5.6634943304  MEMB      90              0.0000000000
     11211        90  DOPC      C315          -35.1308954038      -27.3593559685        3.8062598504  MEMB      90              0.0000000000
     11212        90  DOPC      H15X          -34.8031805405      -26.3475987310        4.1276179732  MEMB      90              0.0000000000
     11213        90  DOPC      H15Y          -36.2089389412      -27.4772985878        3.5649452973  MEMB      90              0.0000000000
     11214        90  DOPC      C316          -34.2664748786      -27.6516314972        2.4981713622  MEMB      90              0.0000000000
     11215        90  DOPC      H16X          -33.2027236760      -27.7158968070        2.8122160972  MEMB      90              0.0000000000
     11216        90  DOPC      H16Y          -34.4059985467      -28.7377268405        2.3104187710  MEMB      90              0.0000000000
     11217        90  DOPC      C317          -34.5871746239      -26.6454538847        1.3261676571  MEMB      90              0.0000000000
     11218        90  DOPC      H17X          -33.9820111833      -25.7241514918        1.4650922257  MEMB      90              0.0000000000
     11219        90  DOPC      H17Y          -34.3540560772      -27.2194162670        0.4039193882  MEMB      90              0.0000000000
     11220        90  DOPC      C318          -36.0523353590      -26.2279361299        1.1081284308  MEMB      90              0.0000000000
     11221        90  DOPC      H18X          -36.6722766226      -27.1198300685        0.8746357873  MEMB      90              0.0000000000
     11222        90  DOPC      H18Y          -36.4087123290      -25.7483340716        2.0447709663  MEMB      90              0.0000000000
     11223        90  DOPC      H18Z          -36.0560428798      -25.4921398475        0.2757159354  MEMB      90              0.0000000000
     11224        91  DOPE      N             -31.7329946088       25.9175076275       17.4316836242  MEMB      91              0.0000000000
     11225        91  DOPE      HN1           -31.1661952148       26.2058322124       18.2546096774  MEMB      91              0.0000000000
     11226        91  DOPE      HN2           -31.3006940227       25.0055177743       17.1807041274  MEMB      91              0.0000000000
     11227        91  DOPE      HN3           -31.5251938185       26.5382711951       16.6235553389  MEMB      91              0.0000000000
     11228        91  DOPE      C12           -33.1517909774       25.6584012567       17.8129215499  MEMB      91              0.0000000000
     11229        91  DOPE      H12A          -33.1399782056       24.7378352261       18.4348054768  MEMB      91              0.0000000000
     11230        91  DOPE      H12B          -33.7339645905       25.2759132187       16.9474173735  MEMB      91              0.0000000000
     11231        91  DOPE      C11           -33.7865556073       27.0011723078       18.3269798400  MEMB      91              0.0000000000
     11232        91  DOPE      H11A          -34.8337631019       26.6845861364       18.5205018864  MEMB      91              0.0000000000
     11233        91  DOPE      H11B          -33.6880109949       27.7290503260       17.4934311812  MEMB      91              0.0000000000
     11234        91  DOPE      P             -32.6104459188       28.7954871359       19.7442769760  MEMB      91              0.0000000000
     11235        91  DOPE      O13           -31.3453347279       28.7999451549       18.9838967754  MEMB      91              0.0000000000
     11236        91  DOPE      O14           -32.5638296500       29.1857546004       21.1701763392  MEMB      91              0.0000000000
     11237        91  DOPE      O11           -33.6207508538       29.6498376507       18.8794170492  MEMB      91              0.0000000000
     11238        91  DOPE      O12           -33.2190704863       27.3312046433       19.6506478493  MEMB      91              0.0000000000
     11239        91  DOPE      C1            -34.5928783556       30.5865650017       19.3106556979  MEMB      91              0.0000000000
     11240        91  DOPE      HA            -34.0149860735       31.4632499928       19.6736774669  MEMB      91              0.0000000000
     11241        91  DOPE      HB            -35.1542864714       30.1730593284       20.1756152362  MEMB      91              0.0000000000
     11242        91  DOPE      C2            -35.5552635857       30.9649034581       18.1430140968  MEMB      91              0.0000000000
     11243        91  DOPE      HS            -36.1341447324       31.8714481249       18.4212115237  MEMB      91              0.0000000000
     11244        91  DOPE      O21           -36.3148456665       29.8657826432       17.7507331344  MEMB      91              0.0000000000
     11245        91  DOPE      C21           -37.4984493341       29.9477641168       17.1695342634  MEMB      91              0.0000000000
     11246        91  DOPE      O22           -38.1016701270       30.9957857797       16.9449160102  MEMB      91              0.0000000000
     11247        91  DOPE      C22           -37.9196439935       28.6096734396       16.6242310739  MEMB      91              0.0000000000
     11248        91  DOPE      H2R           -38.8764055422       28.7272473570       16.0718687084  MEMB      91              0.0000000000
     11249        91  DOPE      H2S           -37.9702726886       27.9689333012       17.5304373223  MEMB      91              0.0000000000
     11250        91  DOPE      C3            -34.7854230612       31.3950545739       16.8733550028  MEMB      91              0.0000000000
     11251        91  DOPE      HX            -34.1547395553       32.2633421754       17.1608201127  MEMB      91              0.0000000000
     11252        91  DOPE      HY            -35.5691174568       31.8453567163       16.2273117564  MEMB      91              0.0000000000
     11253        91  DOPE      O31           -34.1644113329       30.2824514440       16.2010297331  MEMB      91              0.0000000000
     11254        91  DOPE      C31           -32.9556463763       30.5180351698       15.5547970064  MEMB      91              0.0000000000
     11255        91  DOPE      O32           -32.3016769692       31.5226484994       15.6845079587  MEMB      91              0.0000000000
     11256        91  DOPE      C32           -32.4546819280       29.2582402152       14.8313246041  MEMB      91              0.0000000000
     11257        91  DOPE      H2X           -32.2425793086       28.4605423364       15.5749719845  MEMB      91              0.0000000000
     11258        91  DOPE      H2Y           -33.2578854650       28.8807224983       14.1629939620  MEMB      91              0.0000000000
     11259        91  DOPE      C23           -36.8711313518       28.0646984939       15.6565034678  MEMB      91              0.0000000000
     11260        91  DOPE      H3R           -35.8833864009       28.0310172858       16.1639936584  MEMB      91              0.0000000000
     11261        91  DOPE      H3S           -36.8576494160       28.6555228072       14.7157238274  MEMB      91              0.0000000000
     11262        91  DOPE      C24           -37.0272414955       26.5819910842       15.3091045437  MEMB      91              0.0000000000
     11263        91  DOPE      H4R           -37.0654076263       25.9019511726       16.1868344594  MEMB      91              0.0000000000
     11264        91  DOPE      H4S           -36.1473206684       26.3183256843       14.6841717507  MEMB      91              0.0000000000
     11265        91  DOPE      C25           -38.2736950973       26.3574063748       14.6039536106  MEMB      91              0.0000000000
     11266        91  DOPE      H5R           -39.1654781526       26.5695884480       15.2316666712  MEMB      91              0.0000000000
     11267        91  DOPE      H5S           -38.2790611904       25.2682662803       14.3847146127  MEMB      91              0.0000000000
     11268        91  DOPE      C26           -38.4520566360       27.1256995205       13.2055187274  MEMB      91              0.0000000000
     11269        91  DOPE      H6R           -38.7438199200       28.1627213303       13.4771454438  MEMB      91              0.0000000000
     11270        91  DOPE      H6S           -39.2590532231       26.6776713202       12.5871757023  MEMB      91              0.0000000000
     11271        91  DOPE      C27           -37.1343555980       27.0456790989       12.3736602303  MEMB      91              0.0000000000
     11272        91  DOPE      H7R           -37.0289872920       25.9763069259       12.0914165545  MEMB      91              0.0000000000
     11273        91  DOPE      H7S           -36.2147109150       27.3364722921       12.9250351057  MEMB      91              0.0000000000
     11274        91  DOPE      C28           -36.9641448010       27.9057080501       11.1356311751  MEMB      91              0.0000000000
     11275        91  DOPE      H8R           -35.9259693540       27.7204828923       10.7860540739  MEMB      91              0.0000000000
     11276        91  DOPE      H8S           -37.1491116368       28.9955058788       11.2472057686  MEMB      91              0.0000000000
     11277        91  DOPE      C29           -37.9775228796       27.6117186743       10.0637742645  MEMB      91              0.0000000000
     11278        91  DOPE      H9R           -38.9630667335       27.3877899213       10.4980082889  MEMB      91              0.0000000000
     11279        91  DOPE      C210          -37.7813446556       27.4265743758        8.7695888124  MEMB      91              0.0000000000
     11280        91  DOPE      H10R          -38.6714505802       27.2602410261        8.1450537547  MEMB      91              0.0000000000
     11281        91  DOPE      C211          -36.4792060766       27.5013266633        8.0488751919  MEMB      91              0.0000000000
     11282        91  DOPE      H11R          -35.7360328887       27.9773986724        8.7236859080  MEMB      91              0.0000000000
     11283        91  DOPE      H11S          -36.6187741500       28.1209842690        7.1373571793  MEMB      91              0.0000000000
     11284        91  DOPE      C212          -35.8316128208       26.2142084324        7.6228428613  MEMB      91              0.0000000000
     11285        91  DOPE      H12R          -35.8147881392       25.5457653176        8.5100984086  MEMB      91              0.0000000000
     11286        91  DOPE      H12S          -34.7453350374       26.2501222082        7.3925566698  MEMB      91              0.0000000000
     11287        91  DOPE      C213          -36.4655973426       25.6002738692        6.4221167327  MEMB      91              0.0000000000
     11288        91  DOPE      H13R          -37.5710165367       25.5014035645        6.4730468482  MEMB      91              0.0000000000
     11289        91  DOPE      H13S          -36.1323717420       24.5482463183        6.2935876383  MEMB      91              0.0000000000
     11290        91  DOPE      C214          -36.0708749871       26.2890866058        5.1245711519  MEMB      91              0.0000000000
     11291        91  DOPE      H14R          -34.9650619292       26.2484311336        5.0253460365  MEMB      91              0.0000000000
     11292        91  DOPE      H14S          -36.2791810970       27.3730311601        5.2510369958  MEMB      91              0.0000000000
     11293        91  DOPE      C215          -36.8115069049       25.7462210885        3.9291971873  MEMB      91              0.0000000000
     11294        91  DOPE      H15R          -37.8784165134       25.9566020440        4.1567158899  MEMB      91              0.0000000000
     11295        91  DOPE      H15S          -36.7525139944       24.6379231236        3.9793642695  MEMB      91              0.0000000000
     11296        91  DOPE      C216          -36.4899321094       26.4278205233        2.6366191271  MEMB      91              0.0000000000
     11297        91  DOPE      H16R          -35.3963657401       26.6008508476        2.5444558899  MEMB      91              0.0000000000
     11298        91  DOPE      H16S          -36.8238409104       27.4863249951        2.6855540885  MEMB      91              0.0000000000
     11299        91  DOPE      C217          -37.1746302262       25.7689546575        1.3720602435  MEMB      91              0.0000000000
     11300        91  DOPE      H17R          -38.2311847665       25.7037052931        1.7093374772  MEMB      91              0.0000000000
     11301        91  DOPE      H17S          -36.7456965861       24.7592683002        1.1963613592  MEMB      91              0.0000000000
     11302        91  DOPE      C218          -37.0049663527       26.6048700628        0.1337188316  MEMB      91              0.0000000000
     11303        91  DOPE      H18R          -37.4691034818       25.9841751742       -0.6622922382  MEMB      91              0.0000000000
     11304        91  DOPE      H18S          -35.9023354524       26.7334093636        0.0889583511  MEMB      91              0.0000000000
     11305        91  DOPE      H18T          -37.5831249943       27.5456469078        0.2561633557  MEMB      91              0.0000000000
     11306        91  DOPE      C33           -31.1834451396       29.5983710843       14.1154360704  MEMB      91              0.0000000000
     11307        91  DOPE      H3X           -30.3734499725       29.6690252129       14.8725603355  MEMB      91              0.0000000000
     11308        91  DOPE      H3Y           -31.3326336136       30.5454234695       13.5540492175  MEMB      91              0.0000000000
     11309        91  DOPE      C34           -31.0655530568       28.5559125887       13.0538531870  MEMB      91              0.0000000000
     11310        91  DOPE      H4X           -30.9898737564       27.5590888284       13.5385551425  MEMB      91              0.0000000000
     11311        91  DOPE      H4Y           -31.9537413105       28.5186554119       12.3874791620  MEMB      91              0.0000000000
     11312        91  DOPE      C35           -29.8643752369       28.7249603077       12.1137168943  MEMB      91              0.0000000000
     11313        91  DOPE      H5X           -29.0189220341       28.8164368414       12.8286729610  MEMB      91              0.0000000000
     11314        91  DOPE      H5Y           -30.1198322465       29.6927327258       11.6315554738  MEMB      91              0.0000000000
     11315        91  DOPE      C36           -29.6758990832       27.5212223633       11.3111706272  MEMB      91              0.0000000000
     11316        91  DOPE      H6X           -29.3304540876       26.6347443585       11.8848819449  MEMB      91              0.0000000000
     11317        91  DOPE      H6Y           -28.9352771299       27.6540562860       10.4937628233  MEMB      91              0.0000000000
     11318        91  DOPE      C37           -30.9387335926       27.0504091638       10.5151871096  MEMB      91              0.0000000000
     11319        91  DOPE      H7X           -31.7796230138       26.8097038971       11.2002320979  MEMB      91              0.0000000000
     11320        91  DOPE      H7Y           -31.2425009517       27.9193117558        9.8930499234  MEMB      91              0.0000000000
     11321        91  DOPE      C38           -30.5526598588       25.8031447470        9.7348905510  MEMB      91              0.0000000000
     11322        91  DOPE      H8X           -30.0602933746       25.0159232191       10.3449557182  MEMB      91              0.0000000000
     11323        91  DOPE      H8Y           -29.7043835448       26.2175864085        9.1492411179  MEMB      91              0.0000000000
     11324        91  DOPE      C39           -31.6062290546       25.1831637261        8.8656924077  MEMB      91              0.0000000000
     11325        91  DOPE      H9X           -32.4851702540       24.9896456202        9.4981585183  MEMB      91              0.0000000000
     11326        91  DOPE      C310          -31.6251260433       24.9355599137        7.5218289546  MEMB      91              0.0000000000
     11327        91  DOPE      H10X          -32.4566476776       24.3693374855        7.0768975364  MEMB      91              0.0000000000
     11328        91  DOPE      C311          -30.5918354992       25.2038372140        6.5020420896  MEMB      91              0.0000000000
     11329        91  DOPE      H11X          -29.5929255114       25.3253847256        6.9729209084  MEMB      91              0.0000000000
     11330        91  DOPE      H11Y          -30.5667755726       24.3898095099        5.7463623376  MEMB      91              0.0000000000
     11331        91  DOPE      C312          -30.9628075763       26.4096161591        5.6216350692  MEMB      91              0.0000000000
     11332        91  DOPE      H12X          -31.8962865244       26.1386916189        5.0835478884  MEMB      91              0.0000000000
     11333        91  DOPE      H12Y          -30.1359107396       26.3573122867        4.8814816636  MEMB      91              0.0000000000
     11334        91  DOPE      C313          -30.8469684688       27.7690184129        6.3043973075  MEMB      91              0.0000000000
     11335        91  DOPE      H13X          -31.7530825792       27.7826124203        6.9471208260  MEMB      91              0.0000000000
     11336        91  DOPE      H13Y          -29.8474603998       27.8288060149        6.7857805171  MEMB      91              0.0000000000
     11337        91  DOPE      C314          -31.0243826829       29.0159254852        5.4323630744  MEMB      91              0.0000000000
     11338        91  DOPE      H14X          -30.1637606035       29.1659689083        4.7459683296  MEMB      91              0.0000000000
     11339        91  DOPE      H14Y          -30.9849331299       29.8326447266        6.1845158641  MEMB      91              0.0000000000
     11340        91  DOPE      C315          -32.4381817507       28.9435328172        4.8771611318  MEMB      91              0.0000000000
     11341        91  DOPE      H15X          -33.1696386651       28.7188620655        5.6826521159  MEMB      91              0.0000000000
     11342        91  DOPE      H15Y          -32.4433616162       28.0879253201        4.1684790243  MEMB      91              0.0000000000
     11343        91  DOPE      C316          -33.0393440100       30.1480968467        4.1378778421  MEMB      91              0.0000000000
     11344        91  DOPE      H16X          -32.4559895407       30.4438137166        3.2397855244  MEMB      91              0.0000000000
     11345        91  DOPE      H16Y          -33.0230645916       31.0048149590        4.8450478779  MEMB      91              0.0000000000
     11346        91  DOPE      C317          -34.3843972650       29.8789240212        3.4234969328  MEMB      91              0.0000000000
     11347        91  DOPE      H17X          -34.1829338050       29.0666322615        2.6928029077  MEMB      91              0.0000000000
     11348        91  DOPE      H17Y          -35.1105788384       29.6208736709        4.2237425124  MEMB      91              0.0000000000
     11349        91  DOPE      C318          -35.0108314338       30.9647377181        2.6858228665  MEMB      91              0.0000000000
     11350        91  DOPE      H18X          -35.9998020299       30.5812223652        2.3554084493  MEMB      91              0.0000000000
     11351        91  DOPE      H18Y          -35.0877221139       31.9290191171        3.2322390303  MEMB      91              0.0000000000
     11352        91  DOPE      H18Z          -34.3964825493       31.0774528530        1.7670236913  MEMB      91              0.0000000000
     11353        92  DOPE      N              20.2243912175       36.3451907005       16.4022561616  MEMB      92              0.0000000000
     11354        92  DOPE      HN1            19.1881343991       36.2678904704       16.3598715083  MEMB      92              0.0000000000
     11355        92  DOPE      HN2            20.5489241076       37.1425470644       15.8187314809  MEMB      92              0.0000000000
     11356        92  DOPE      HN3            20.6107283906       35.4996600901       15.9359712600  MEMB      92              0.0000000000
     11357        92  DOPE      C12            20.6845395792       36.5629633768       17.8621467983  MEMB      92              0.0000000000
     11358        92  DOPE      H12A           20.1478400722       35.8344380517       18.5067592902  MEMB      92              0.0000000000
     11359        92  DOPE      H12B           20.4570697838       37.6144204511       18.1396653331  MEMB      92              0.0000000000
     11360        92  DOPE      C11            22.1751566345       36.2772152880       17.9959652024  MEMB      92              0.0000000000
     11361        92  DOPE      H11A           22.8463263089       36.8951899353       17.3619624013  MEMB      92              0.0000000000
     11362        92  DOPE      H11B           22.2510617864       35.2335961414       17.6225771710  MEMB      92              0.0000000000
     11363        92  DOPE      P              23.0352595637       37.8106834551       20.0441238502  MEMB      92              0.0000000000
     11364        92  DOPE      O13            24.3852864071       37.5984721882       20.5909126692  MEMB      92              0.0000000000
     11365        92  DOPE      O14            21.9339402725       38.2442298490       20.9173351466  MEMB      92              0.0000000000
     11366        92  DOPE      O11            23.2944337291       38.7936264900       18.8450366301  MEMB      92              0.0000000000
     11367        92  DOPE      O12            22.6330654471       36.3788122646       19.3422235394  MEMB      92              0.0000000000
     11368        92  DOPE      C1             23.5611730761       40.1881594170       19.0145960854  MEMB      92              0.0000000000
     11369        92  DOPE      HA             24.5965296198       40.2801359957       19.4068946795  MEMB      92              0.0000000000
     11370        92  DOPE      HB             22.7861282661       40.6229520604       19.6813658989  MEMB      92              0.0000000000
     11371        92  DOPE      C2             23.5047413671       41.0389558912       17.6812816607  MEMB      92              0.0000000000
     11372        92  DOPE      HS             23.4197400046       42.0944339970       18.0175277797  MEMB      92              0.0000000000
     11373        92  DOPE      O21            22.4044290226       40.5876589723       16.9479767803  MEMB      92              0.0000000000
     11374        92  DOPE      C21            22.0533581956       41.3437097124       15.8435152660  MEMB      92              0.0000000000
     11375        92  DOPE      O22            22.5755639469       42.4097661091       15.5660590212  MEMB      92              0.0000000000
     11376        92  DOPE      C22            20.8334460670       40.6586374821       15.2125867203  MEMB      92              0.0000000000
     11377        92  DOPE      H2R            19.9579398653       40.9772772535       15.8177967500  MEMB      92              0.0000000000
     11378        92  DOPE      H2S            20.9683116562       39.5574901888       15.2726439937  MEMB      92              0.0000000000
     11379        92  DOPE      C3             24.8580595615       40.8435021134       16.8323699927  MEMB      92              0.0000000000
     11380        92  DOPE      HX             25.6545895964       41.0267040378       17.5848976234  MEMB      92              0.0000000000
     11381        92  DOPE      HY             25.0113166094       41.6123790572       16.0451839470  MEMB      92              0.0000000000
     11382        92  DOPE      O31            24.8622089885       39.5095018807       16.3207694253  MEMB      92              0.0000000000
     11383        92  DOPE      C31            25.7174184874       39.3988621603       15.2779497737  MEMB      92              0.0000000000
     11384        92  DOPE      O32            26.2779093783       40.3503252971       14.7514725551  MEMB      92              0.0000000000
     11385        92  DOPE      C32            25.8023088380       37.9315990899       14.9664949072  MEMB      92              0.0000000000
     11386        92  DOPE      H2X            26.2202453380       37.3801385231       15.8357138739  MEMB      92              0.0000000000
     11387        92  DOPE      H2Y            24.8350578046       37.4894192005       14.6452110380  MEMB      92              0.0000000000
     11388        92  DOPE      C23            20.6398491524       41.2277179878       13.7279588237  MEMB      92              0.0000000000
     11389        92  DOPE      H3R            20.6825248459       42.3378460692       13.7386947815  MEMB      92              0.0000000000
     11390        92  DOPE      H3S            19.6212362170       40.8104580217       13.5774837372  MEMB      92              0.0000000000
     11391        92  DOPE      C24            21.4828991503       40.4989393839       12.5997999818  MEMB      92              0.0000000000
     11392        92  DOPE      H4R            21.1669304480       39.4345334964       12.5607499473  MEMB      92              0.0000000000
     11393        92  DOPE      H4S            22.5524213219       40.6133728360       12.8779152624  MEMB      92              0.0000000000
     11394        92  DOPE      C25            21.3560825141       41.1389315656       11.1668005750  MEMB      92              0.0000000000
     11395        92  DOPE      H5R            21.2107934384       42.2372342442       11.0834738680  MEMB      92              0.0000000000
     11396        92  DOPE      H5S            20.3000789912       40.8871649434       10.9305992418  MEMB      92              0.0000000000
     11397        92  DOPE      C26            22.4338608323       40.6497494090       10.2555405172  MEMB      92              0.0000000000
     11398        92  DOPE      H6R            22.2235498284       40.8524294299        9.1836209117  MEMB      92              0.0000000000
     11399        92  DOPE      H6S            22.3781246399       39.5401822828       10.2642130735  MEMB      92              0.0000000000
     11400        92  DOPE      C27            23.8239365617       41.2270544366       10.3705115027  MEMB      92              0.0000000000
     11401        92  DOPE      H7R            24.2923609525       41.1175121741       11.3719608646  MEMB      92              0.0000000000
     11402        92  DOPE      H7S            23.6100063058       42.3093079652       10.2390497588  MEMB      92              0.0000000000
     11403        92  DOPE      C28            24.8717559608       40.6719536198        9.2574537599  MEMB      92              0.0000000000
     11404        92  DOPE      H8R            24.6136902375       41.1984436582        8.3137745945  MEMB      92              0.0000000000
     11405        92  DOPE      H8S            24.5439006748       39.6302331076        9.0533697935  MEMB      92              0.0000000000
     11406        92  DOPE      C29            26.2331187527       40.7436250055        9.5833537814  MEMB      92              0.0000000000
     11407        92  DOPE      H9R            26.4337371675       41.0217879876       10.6285219677  MEMB      92              0.0000000000
     11408        92  DOPE      C210           27.2939985126       40.5517469629        8.7897503410  MEMB      92              0.0000000000
     11409        92  DOPE      H10R           28.2932423286       40.8215343792        9.1622105554  MEMB      92              0.0000000000
     11410        92  DOPE      C211           27.2155483639       40.1066411326        7.3134548620  MEMB      92              0.0000000000
     11411        92  DOPE      H11R           27.5023722219       40.9010629216        6.5916877061  MEMB      92              0.0000000000
     11412        92  DOPE      H11S           26.1686731401       39.9343439017        6.9837779208  MEMB      92              0.0000000000
     11413        92  DOPE      C212           27.9803587279       38.7827081869        7.0779578464  MEMB      92              0.0000000000
     11414        92  DOPE      H12R           27.4037683697       38.0956988482        7.7336120380  MEMB      92              0.0000000000
     11415        92  DOPE      H12S           29.0343021229       38.8625734195        7.4202234682  MEMB      92              0.0000000000
     11416        92  DOPE      C213           27.9863521924       38.3404125871        5.6175463436  MEMB      92              0.0000000000
     11417        92  DOPE      H13R           28.5604635596       37.3947382351        5.7196114230  MEMB      92              0.0000000000
     11418        92  DOPE      H13S           28.4257680048       39.1267411393        4.9672213257  MEMB      92              0.0000000000
     11419        92  DOPE      C214           26.6434888582       38.0844071262        4.9599200209  MEMB      92              0.0000000000
     11420        92  DOPE      H14R           26.7253838417       37.7783288584        3.8950579552  MEMB      92              0.0000000000
     11421        92  DOPE      H14S           26.1710472661       39.0884245994        4.9045232380  MEMB      92              0.0000000000
     11422        92  DOPE      C215           25.7264846306       37.0806512550        5.6959846101  MEMB      92              0.0000000000
     11423        92  DOPE      H15R           24.7378508510       36.9739554836        5.2004638432  MEMB      92              0.0000000000
     11424        92  DOPE      H15S           25.5175420968       37.2648354915        6.7715030266  MEMB      92              0.0000000000
     11425        92  DOPE      C216           26.4348199560       35.7268916216        5.7815669771  MEMB      92              0.0000000000
     11426        92  DOPE      H16R           25.7349909884       34.9412650336        6.1384308797  MEMB      92              0.0000000000
     11427        92  DOPE      H16S           27.2607958208       35.7823477996        6.5225184479  MEMB      92              0.0000000000
     11428        92  DOPE      C217           26.9025250196       35.2001755281        4.4313821275  MEMB      92              0.0000000000
     11429        92  DOPE      H17R           27.3973837091       34.2630131894        4.7647920997  MEMB      92              0.0000000000
     11430        92  DOPE      H17S           27.6859000924       35.8517806941        3.9886010569  MEMB      92              0.0000000000
     11431        92  DOPE      C218           25.9686653703       34.8014844288        3.3087332370  MEMB      92              0.0000000000
     11432        92  DOPE      H18R           25.3731025474       35.7094894798        3.0738874851  MEMB      92              0.0000000000
     11433        92  DOPE      H18S           25.2851299656       33.9671917086        3.5752984684  MEMB      92              0.0000000000
     11434        92  DOPE      H18T           26.5635558549       34.6031142283        2.3916319983  MEMB      92              0.0000000000
     11435        92  DOPE      C33            26.8935231610       37.7124729990       13.9260403574  MEMB      92              0.0000000000
     11436        92  DOPE      H3X            27.2833180425       36.6868778328       14.1007850228  MEMB      92              0.0000000000
     11437        92  DOPE      H3Y            27.7170707459       38.4189393701       14.1647782992  MEMB      92              0.0000000000
     11438        92  DOPE      C34            26.3736383485       37.8948426960       12.4654286324  MEMB      92              0.0000000000
     11439        92  DOPE      H4X            25.8122512071       38.8533472371       12.4445815849  MEMB      92              0.0000000000
     11440        92  DOPE      H4Y            27.2163795431       38.0975057958       11.7704212681  MEMB      92              0.0000000000
     11441        92  DOPE      C35            25.5196971410       36.7409785320       12.0061462963  MEMB      92              0.0000000000
     11442        92  DOPE      H5X            24.6403030505       36.6074161317       12.6718396015  MEMB      92              0.0000000000
     11443        92  DOPE      H5Y            26.1165762021       35.8068928582       11.9317111369  MEMB      92              0.0000000000
     11444        92  DOPE      C36            24.9061203144       36.6958005809       10.5875402857  MEMB      92              0.0000000000
     11445        92  DOPE      H6X            25.7044747625       36.7937424088        9.8211469347  MEMB      92              0.0000000000
     11446        92  DOPE      H6Y            24.2688655607       37.6040132632       10.5294272727  MEMB      92              0.0000000000
     11447        92  DOPE      C37            24.0445962533       35.3931134151       10.4289957468  MEMB      92              0.0000000000
     11448        92  DOPE      H7X            24.6357683840       34.4621520628       10.2942834215  MEMB      92              0.0000000000
     11449        92  DOPE      H7Y            23.5995290622       35.2028059652       11.4290058196  MEMB      92              0.0000000000
     11450        92  DOPE      C38            23.0106974906       35.5307171750        9.2918877195  MEMB      92              0.0000000000
     11451        92  DOPE      H8X            22.4998898038       34.5442886110        9.2730374366  MEMB      92              0.0000000000
     11452        92  DOPE      H8Y            23.5793256786       35.6004005364        8.3399812984  MEMB      92              0.0000000000
     11453        92  DOPE      C39            22.0277287792       36.6282653554        9.3828239492  MEMB      92              0.0000000000
     11454        92  DOPE      H9X            21.3258123875       36.5834194831       10.2285786306  MEMB      92              0.0000000000
     11455        92  DOPE      C310           21.8365649122       37.5690595118        8.5350860061  MEMB      92              0.0000000000
     11456        92  DOPE      H10X           21.0827983658       38.3031448634        8.8559512754  MEMB      92              0.0000000000
     11457        92  DOPE      C311           22.6927484426       37.7680347191        7.2622297982  MEMB      92              0.0000000000
     11458        92  DOPE      H11X           23.3284483090       38.6779842226        7.3091166225  MEMB      92              0.0000000000
     11459        92  DOPE      H11Y           23.4100749568       36.9486659685        7.0422332781  MEMB      92              0.0000000000
     11460        92  DOPE      C312           21.7399523172       37.7777669797        6.0846932327  MEMB      92              0.0000000000
     11461        92  DOPE      H12X           20.7256315391       38.0483574329        6.4483618029  MEMB      92              0.0000000000
     11462        92  DOPE      H12Y           21.7867438073       36.7393245736        5.6925596087  MEMB      92              0.0000000000
     11463        92  DOPE      C313           22.1290287113       38.7748470493        4.9377823832  MEMB      92              0.0000000000
     11464        92  DOPE      H13X           23.1240036276       38.4818947068        4.5396314668  MEMB      92              0.0000000000
     11465        92  DOPE      H13Y           21.3033210958       38.6166998684        4.2114783496  MEMB      92              0.0000000000
     11466        92  DOPE      C314           22.0092166428       40.2499365784        5.2596540618  MEMB      92              0.0000000000
     11467        92  DOPE      H14X           22.7838116965       40.3599887926        6.0484585378  MEMB      92              0.0000000000
     11468        92  DOPE      H14Y           21.0201197917       40.4325346477        5.7315298659  MEMB      92              0.0000000000
     11469        92  DOPE      C315           22.2266276064       41.1398669043        4.0093238110  MEMB      92              0.0000000000
     11470        92  DOPE      H15X           22.1175580748       42.1896103019        4.3564019356  MEMB      92              0.0000000000
     11471        92  DOPE      H15Y           21.3977659885       41.0815631279        3.2718212055  MEMB      92              0.0000000000
     11472        92  DOPE      C316           23.5788621830       40.8502613156        3.3185805616  MEMB      92              0.0000000000
     11473        92  DOPE      H16X           23.5470542839       39.8444337652        2.8478158781  MEMB      92              0.0000000000
     11474        92  DOPE      H16Y           24.3991855208       40.7959622465        4.0658705490  MEMB      92              0.0000000000
     11475        92  DOPE      C317           23.8328987411       41.7378879324        2.0473845383  MEMB      92              0.0000000000
     11476        92  DOPE      H17X           23.7439133268       42.8332319483        2.2105528899  MEMB      92              0.0000000000
     11477        92  DOPE      H17Y           24.8865760340       41.6138018457        1.7177050792  MEMB      92              0.0000000000
     11478        92  DOPE      C318           22.9172472514       41.3869482024        0.8307584678  MEMB      92              0.0000000000
     11479        92  DOPE      H18X           21.9929879028       41.9809147302        0.9958932587  MEMB      92              0.0000000000
     11480        92  DOPE      H18Y           23.4411512388       41.6925314631       -0.1000832550  MEMB      92              0.0000000000
     11481        92  DOPE      H18Z           22.5862046086       40.3264356606        0.8374097935  MEMB      92              0.0000000000
     11482        93  DOPC      N              31.0721427429       32.3689164306       17.9960855515  MEMB      93              0.0000000000
     11483        93  DOPC      C12            30.5123466836       32.0900781013       19.3936349055  MEMB      93              0.0000000000
     11484        93  DOPC      H12A           30.8620291917       32.9311931966       19.9738483267  MEMB      93              0.0000000000
     11485        93  DOPC      H12B           31.0076019385       31.2035674830       19.7613592910  MEMB      93              0.0000000000
     11486        93  DOPC      C13            32.5787080965       32.5651321987       18.1141299146  MEMB      93              0.0000000000
     11487        93  DOPC      H13A           33.0758849373       32.9862247296       17.2527958515  MEMB      93              0.0000000000
     11488        93  DOPC      H13B           32.7277191260       33.2410959950       18.9431466742  MEMB      93              0.0000000000
     11489        93  DOPC      H13C           33.0416484180       31.6162291354       18.3414382344  MEMB      93              0.0000000000
     11490        93  DOPC      C14            30.4654605619       33.6564296409       17.4258344159  MEMB      93              0.0000000000
     11491        93  DOPC      H14A           29.3914477862       33.5728314921       17.5026974772  MEMB      93              0.0000000000
     11492        93  DOPC      H14B           30.8953435301       34.5057288267       17.9360219815  MEMB      93              0.0000000000
     11493        93  DOPC      H14C           30.8381778809       33.7491352750       16.4164347460  MEMB      93              0.0000000000
     11494        93  DOPC      C15            30.9236030126       31.2483107288       16.9774822491  MEMB      93              0.0000000000
     11495        93  DOPC      H15A           31.6083305443       31.5245982284       16.1893111845  MEMB      93              0.0000000000
     11496        93  DOPC      H15B           29.9293123310       31.2651708912       16.5561725651  MEMB      93              0.0000000000
     11497        93  DOPC      H15C           31.1203489650       30.2858003570       17.4261074010  MEMB      93              0.0000000000
     11498        93  DOPC      C11            29.0105780886       31.7534947808       19.6372931710  MEMB      93              0.0000000000
     11499        93  DOPC      H11A           28.8305901934       30.7985497353       19.0987718242  MEMB      93              0.0000000000
     11500        93  DOPC      H11B           28.5929036340       31.5020408285       20.6356117338  MEMB      93              0.0000000000
     11501        93  DOPC      P              27.7924760314       34.0244776356       19.9642879054  MEMB      93              0.0000000000
     11502        93  DOPC      O13            28.9491165302       34.9053592917       19.7681260917  MEMB      93              0.0000000000
     11503        93  DOPC      O14            27.4002981534       33.8395426616       21.3961793029  MEMB      93              0.0000000000
     11504        93  DOPC      O12            28.2089410798       32.7290458956       19.1284333910  MEMB      93              0.0000000000
     11505        93  DOPC      O11            26.4975468223       34.6530885301       19.1985130625  MEMB      93              0.0000000000
     11506        93  DOPC      C1             26.5037716666       35.2549013089       18.0050799085  MEMB      93              0.0000000000
     11507        93  DOPC      HA             27.4076910142       35.8681713630       17.8022236903  MEMB      93              0.0000000000
     11508        93  DOPC      HB             25.7887416256       36.1024543399       18.0736904841  MEMB      93              0.0000000000
     11509        93  DOPC      C2             26.0156992273       34.3143340521       16.9346571143  MEMB      93              0.0000000000
     11510        93  DOPC      HS             24.9525891555       34.1173004428       17.1901876426  MEMB      93              0.0000000000
     11511        93  DOPC      O21            26.8368267339       33.1487902070       16.8306919802  MEMB      93              0.0000000000
     11512        93  DOPC      C21            26.2496220006       32.1738640558       16.1835371682  MEMB      93              0.0000000000
     11513        93  DOPC      O22            25.0752149944       32.1695139289       15.7875577961  MEMB      93              0.0000000000
     11514        93  DOPC      C22            27.2070301318       30.9759435926       15.9558638655  MEMB      93              0.0000000000
     11515        93  DOPC      H2R            27.1622130515       30.1937904116       16.7436132914  MEMB      93              0.0000000000
     11516        93  DOPC      H2S            28.2573729294       31.3376462116       15.9723575820  MEMB      93              0.0000000000
     11517        93  DOPC      C3             26.0157047871       35.0766872473       15.6032704052  MEMB      93              0.0000000000
     11518        93  DOPC      HX             25.6772731897       36.1332990089       15.6612081597  MEMB      93              0.0000000000
     11519        93  DOPC      HY             25.4389393109       34.4333503219       14.9048576341  MEMB      93              0.0000000000
     11520        93  DOPC      O31            27.3840827833       35.1152186171       15.1745143169  MEMB      93              0.0000000000
     11521        93  DOPC      C31            27.5467493954       34.9744454347       13.8656290912  MEMB      93              0.0000000000
     11522        93  DOPC      O32            26.7765866035       35.0757371632       12.9840604811  MEMB      93              0.0000000000
     11523        93  DOPC      C32            29.0632010665       34.6506866927       13.6040810302  MEMB      93              0.0000000000
     11524        93  DOPC      H2X            29.2097418086       33.6713041904       14.1077240865  MEMB      93              0.0000000000
     11525        93  DOPC      H2Y            29.1256286795       34.4761865621       12.5086476411  MEMB      93              0.0000000000
     11526        93  DOPC      C23            27.0028240085       30.1216676892       14.6182542920  MEMB      93              0.0000000000
     11527        93  DOPC      H3R            25.9287642756       29.8375667302       14.6166244168  MEMB      93              0.0000000000
     11528        93  DOPC      H3S            27.6256813861       29.2026752027       14.6609435457  MEMB      93              0.0000000000
     11529        93  DOPC      C24            27.2867700528       30.9257454626       13.3593731746  MEMB      93              0.0000000000
     11530        93  DOPC      H4R            28.3230721793       31.3261642556       13.3673386646  MEMB      93              0.0000000000
     11531        93  DOPC      H4S            26.5886404916       31.7737115770       13.5263749844  MEMB      93              0.0000000000
     11532        93  DOPC      C25            26.9326639047       30.1125437085       12.1723475775  MEMB      93              0.0000000000
     11533        93  DOPC      H5R            25.8827609451       29.7673411236       12.2857506255  MEMB      93              0.0000000000
     11534        93  DOPC      H5S            27.5332837973       29.1833303637       12.0716533724  MEMB      93              0.0000000000
     11535        93  DOPC      C26            26.9869716948       30.8877342849       10.8675620375  MEMB      93              0.0000000000
     11536        93  DOPC      H6R            26.7893360333       30.1371312102       10.0726686382  MEMB      93              0.0000000000
     11537        93  DOPC      H6S            28.0340642641       31.2030847209       10.6714177755  MEMB      93              0.0000000000
     11538        93  DOPC      C27            26.1417614467       32.2204792298       10.7870851011  MEMB      93              0.0000000000
     11539        93  DOPC      H7R            26.7320927256       32.9505912483       11.3810269302  MEMB      93              0.0000000000
     11540        93  DOPC      H7S            25.1669405160       31.9692655506       11.2571241146  MEMB      93              0.0000000000
     11541        93  DOPC      C28            25.8332234632       32.8634014725        9.4662158444  MEMB      93              0.0000000000
     11542        93  DOPC      H8R            25.1263978003       33.7166559154        9.5479160398  MEMB      93              0.0000000000
     11543        93  DOPC      H8S            25.1409332744       32.0848276634        9.0803683907  MEMB      93              0.0000000000
     11544        93  DOPC      C29            26.9164803847       33.2285440501        8.4760258002  MEMB      93              0.0000000000
     11545        93  DOPC      H9R            27.3139748345       32.3930968422        7.8810252216  MEMB      93              0.0000000000
     11546        93  DOPC      C210           27.4197799114       34.4550519860        8.2213399508  MEMB      93              0.0000000000
     11547        93  DOPC      H10R           28.1896626813       34.6094208967        7.4509825452  MEMB      93              0.0000000000
     11548        93  DOPC      C211           27.0219580346       35.7388146693        8.9724915080  MEMB      93              0.0000000000
     11549        93  DOPC      H11R           28.0083408997       36.2087541435        9.1738042002  MEMB      93              0.0000000000
     11550        93  DOPC      H11S           26.5330531635       35.5703195335        9.9558040278  MEMB      93              0.0000000000
     11551        93  DOPC      C212           26.1782753302       36.7356001350        8.2271334075  MEMB      93              0.0000000000
     11552        93  DOPC      H12R           26.0828222394       37.6877450352        8.7916066670  MEMB      93              0.0000000000
     11553        93  DOPC      H12S           25.1966912206       36.2685231826        7.9976723416  MEMB      93              0.0000000000
     11554        93  DOPC      C213           26.7869302092       37.0311023844        6.8997315553  MEMB      93              0.0000000000
     11555        93  DOPC      H13R           26.1920379182       37.9263334245        6.6186893380  MEMB      93              0.0000000000
     11556        93  DOPC      H13S           26.4245180136       36.2529342939        6.1944423122  MEMB      93              0.0000000000
     11557        93  DOPC      C214           28.1934951095       37.5033666932        6.8288199614  MEMB      93              0.0000000000
     11558        93  DOPC      H14R           28.9288507428       36.8741222173        7.3743696479  MEMB      93              0.0000000000
     11559        93  DOPC      H14S           28.2318698051       38.5197220697        7.2758876292  MEMB      93              0.0000000000
     11560        93  DOPC      C215           28.6387106563       37.6505290940        5.3446669932  MEMB      93              0.0000000000
     11561        93  DOPC      H15R           29.5823199629       38.2346126378        5.2920469681  MEMB      93              0.0000000000
     11562        93  DOPC      H15S           27.8217932376       38.0575030842        4.7111538399  MEMB      93              0.0000000000
     11563        93  DOPC      C216           29.1613242215       36.3148690057        4.7312413182  MEMB      93              0.0000000000
     11564        93  DOPC      H16R           28.4490586151       35.4720472427        4.8602760219  MEMB      93              0.0000000000
     11565        93  DOPC      H16S           30.1456812607       35.8928152175        5.0265932437  MEMB      93              0.0000000000
     11566        93  DOPC      C217           29.4687546112       36.3135541859        3.1996384733  MEMB      93              0.0000000000
     11567        93  DOPC      H17R           28.5127412607       36.4884652503        2.6613398559  MEMB      93              0.0000000000
     11568        93  DOPC      H17S           29.8722056684       35.3302849037        2.8760186652  MEMB      93              0.0000000000
     11569        93  DOPC      C218           30.4088259236       37.4080918272        2.6797955378  MEMB      93              0.0000000000
     11570        93  DOPC      H18R           30.8044562163       37.1858255187        1.6656984018  MEMB      93              0.0000000000
     11571        93  DOPC      H18S           31.3396882296       37.4539332729        3.2845392629  MEMB      93              0.0000000000
     11572        93  DOPC      H18T           29.8866723271       38.3881474617        2.6456156556  MEMB      93              0.0000000000
     11573        93  DOPC      C33            30.1594969014       35.5988201476       14.1652171159  MEMB      93              0.0000000000
     11574        93  DOPC      H3X            29.9599904432       35.7124586320       15.2522338899  MEMB      93              0.0000000000
     11575        93  DOPC      H3Y            29.9188226100       36.5401883588       13.6264942154  MEMB      93              0.0000000000
     11576        93  DOPC      C34            31.5532738593       35.0875148460       13.9813256821  MEMB      93              0.0000000000
     11577        93  DOPC      H4X            31.5575659070       34.1064652820       14.5027127262  MEMB      93              0.0000000000
     11578        93  DOPC      H4Y            32.3243982884       35.7237267363       14.4660137917  MEMB      93              0.0000000000
     11579        93  DOPC      C35            32.0956220879       34.9402755316       12.5520890470  MEMB      93              0.0000000000
     11580        93  DOPC      H5X            31.3750453388       34.3477765215       11.9487358428  MEMB      93              0.0000000000
     11581        93  DOPC      H5Y            33.0283112764       34.3390853288       12.6066977993  MEMB      93              0.0000000000
     11582        93  DOPC      C36            32.2461894229       36.2277586353       11.6606951777  MEMB      93              0.0000000000
     11583        93  DOPC      H6X            31.1925640773       36.4925350800       11.4281264382  MEMB      93              0.0000000000
     11584        93  DOPC      H6Y            32.6691861179       36.9881522676       12.3514892724  MEMB      93              0.0000000000
     11585        93  DOPC      C37            33.1773124889       35.8931378004       10.4663642771  MEMB      93              0.0000000000
     11586        93  DOPC      H7X            34.2217958407       35.8451205770       10.8419569715  MEMB      93              0.0000000000
     11587        93  DOPC      H7Y            32.8941400360       34.9663945871        9.9229657700  MEMB      93              0.0000000000
     11588        93  DOPC      C38            32.9866245975       36.9915159225        9.4008343835  MEMB      93              0.0000000000
     11589        93  DOPC      H8X            33.8615331262       37.0693139935        8.7205378420  MEMB      93              0.0000000000
     11590        93  DOPC      H8Y            32.8768908024       38.0443928921        9.7380716653  MEMB      93              0.0000000000
     11591        93  DOPC      C39            31.7243383488       36.7219109328        8.6084588100  MEMB      93              0.0000000000
     11592        93  DOPC      H9X            30.7733334761       37.1631931235        8.9414143242  MEMB      93              0.0000000000
     11593        93  DOPC      C310           31.7407769032       35.9671549870        7.4863123483  MEMB      93              0.0000000000
     11594        93  DOPC      H10X           30.7446105473       35.7720661833        7.0625280097  MEMB      93              0.0000000000
     11595        93  DOPC      C311           32.8824303268       35.2579703667        6.7992386796  MEMB      93              0.0000000000
     11596        93  DOPC      H11X           33.7549060977       35.3686854600        7.4780974418  MEMB      93              0.0000000000
     11597        93  DOPC      H11Y           33.0877152401       35.6837546741        5.7938101271  MEMB      93              0.0000000000
     11598        93  DOPC      C312           32.8628032282       33.7132590470        6.6876621931  MEMB      93              0.0000000000
     11599        93  DOPC      H12X           32.6684533306       33.2798471845        7.6920046052  MEMB      93              0.0000000000
     11600        93  DOPC      H12Y           33.8713045618       33.3962580799        6.3459649459  MEMB      93              0.0000000000
     11601        93  DOPC      C313           31.7789825483       33.3150224085        5.6766637826  MEMB      93              0.0000000000
     11602        93  DOPC      H13X           30.7449779486       33.5217104596        6.0265722546  MEMB      93              0.0000000000
     11603        93  DOPC      H13Y           31.9589604824       33.9282626014        4.7678924855  MEMB      93              0.0000000000
     11604        93  DOPC      C314           31.7087281307       31.8136297528        5.2440576667  MEMB      93              0.0000000000
     11605        93  DOPC      H14X           32.5167952083       31.7183455119        4.4875728495  MEMB      93              0.0000000000
     11606        93  DOPC      H14Y           32.0864838610       31.2772779963        6.1406896994  MEMB      93              0.0000000000
     11607        93  DOPC      C315           30.2650358585       31.4823135601        4.8512047753  MEMB      93              0.0000000000
     11608        93  DOPC      H15X           29.5874989989       31.8342670622        5.6582941087  MEMB      93              0.0000000000
     11609        93  DOPC      H15Y           30.1955779968       30.3892692133        4.6647888428  MEMB      93              0.0000000000
     11610        93  DOPC      C316           29.7221574556       32.2405790694        3.6135744289  MEMB      93              0.0000000000
     11611        93  DOPC      H16X           29.3061585353       33.1668244258        4.0645014810  MEMB      93              0.0000000000
     11612        93  DOPC      H16Y           30.6006311118       32.6164962233        3.0467476232  MEMB      93              0.0000000000
     11613        93  DOPC      C317           28.7961307586       31.6105367083        2.6662729506  MEMB      93              0.0000000000
     11614        93  DOPC      H17X           27.8261049673       31.3726678141        3.1528847377  MEMB      93              0.0000000000
     11615        93  DOPC      H17Y           28.5329585564       32.3843320894        1.9137442110  MEMB      93              0.0000000000
     11616        93  DOPC      C318           29.4003419989       30.3733197596        1.9997657609  MEMB      93              0.0000000000
     11617        93  DOPC      H18X           28.8853273207       30.2674773370        1.0210538118  MEMB      93              0.0000000000
     11618        93  DOPC      H18Y           30.4974605109       30.5415743769        1.9513711054  MEMB      93              0.0000000000
     11619        93  DOPC      H18Z           29.2805283663       29.4390598794        2.5889389321  MEMB      93              0.0000000000
     11620        94  CHL1      C3            -26.3686536411      -35.8267059108       17.2980500000  MEMB      94              0.0000000000
     11621        94  CHL1      H3            -27.0322644314      -36.6858520168       17.0618200000  MEMB      94              0.0000000000
     11622        94  CHL1      O3            -26.0685129589      -35.8396858892       18.7019500000  MEMB      94              0.0000000000
     11623        94  CHL1      H3'           -26.9127424271      -36.0036290182       19.1285700000  MEMB      94              0.0000000000
     11624        94  CHL1      C4            -25.0351831060      -35.9475761552       16.5445200000  MEMB      94              0.0000000000
     11625        94  CHL1      H4A           -24.3167242773      -35.1967901396       16.9375400000  MEMB      94              0.0000000000
     11626        94  CHL1      H4B           -24.5709005762      -36.9417096264       16.7190300000  MEMB      94              0.0000000000
     11627        94  CHL1      C5            -25.1916608519      -35.6432565919       15.0498800000  MEMB      94              0.0000000000
     11628        94  CHL1      C6            -24.9388986121      -36.5548885048       14.0733200000  MEMB      94              0.0000000000
     11629        94  CHL1      H6            -24.4796785274      -37.5181614940       14.3402100000  MEMB      94              0.0000000000
     11630        94  CHL1      C7            -25.0792671776      -36.3824852918       12.5421400000  MEMB      94              0.0000000000
     11631        94  CHL1      H7A           -24.1269255328      -36.7677084960       12.1191000000  MEMB      94              0.0000000000
     11632        94  CHL1      H7B           -25.9300512384      -36.9454601326       12.1022100000  MEMB      94              0.0000000000
     11633        94  CHL1      C8            -25.2487307093      -34.8651782562       12.2402000000  MEMB      94              0.0000000000
     11634        94  CHL1      H8            -24.2738241598      -34.4011136309       12.5019800000  MEMB      94              0.0000000000
     11635        94  CHL1      C14           -25.6075184473      -34.5249026737       10.7343900000  MEMB      94              0.0000000000
     11636        94  CHL1      H14           -26.6859164962      -34.7920123205       10.7285300000  MEMB      94              0.0000000000
     11637        94  CHL1      C15           -24.9384392613      -35.3002230683        9.5798000000  MEMB      94              0.0000000000
     11638        94  CHL1      H15A          -23.8300377487      -35.3079947570        9.6553600000  MEMB      94              0.0000000000
     11639        94  CHL1      H15B          -25.2102089505      -36.3732242871        9.4842300000  MEMB      94              0.0000000000
     11640        94  CHL1      C16           -25.4743717916      -34.4741653869        8.3210400000  MEMB      94              0.0000000000
     11641        94  CHL1      H16A          -24.6198075342      -34.0910948768        7.7232800000  MEMB      94              0.0000000000
     11642        94  CHL1      H16B          -26.1339776197      -34.9266766907        7.5500200000  MEMB      94              0.0000000000
     11643        94  CHL1      C17           -26.2046169891      -33.2319470248        8.8876200000  MEMB      94              0.0000000000
     11644        94  CHL1      H17           -27.2266728326      -33.6193560947        9.0867000000  MEMB      94              0.0000000000
     11645        94  CHL1      C13           -25.6956700560      -33.1239217880       10.2670700000  MEMB      94              0.0000000000
     11646        94  CHL1      C18           -24.1992411140      -32.5475097130       10.2133100000  MEMB      94              0.0000000000
     11647        94  CHL1      H18A          -23.8048718606      -32.5976085394       11.2507600000  MEMB      94              0.0000000000
     11648        94  CHL1      H18B          -23.5739167584      -33.2328663548        9.6021000000  MEMB      94              0.0000000000
     11649        94  CHL1      H18C          -24.0911690872      -31.4833172490        9.9131000000  MEMB      94              0.0000000000
     11650        94  CHL1      C12           -26.5489838182      -32.3621047054       11.2789900000  MEMB      94              0.0000000000
     11651        94  CHL1      H12A          -26.3160074603      -31.2784339386       11.2033900000  MEMB      94              0.0000000000
     11652        94  CHL1      H12B          -27.5786950745      -32.7438487992       11.1107700000  MEMB      94              0.0000000000
     11653        94  CHL1      C11           -26.1765516475      -32.6231034902       12.7339600000  MEMB      94              0.0000000000
     11654        94  CHL1      H11A          -25.1668733511      -32.2053502556       12.9348500000  MEMB      94              0.0000000000
     11655        94  CHL1      H11B          -26.9578749396      -32.0843169389       13.3115100000  MEMB      94              0.0000000000
     11656        94  CHL1      C9            -26.1576411764      -34.1117369068       13.1883000000  MEMB      94              0.0000000000
     11657        94  CHL1      H9            -27.2001819395      -34.4425782918       12.9934200000  MEMB      94              0.0000000000
     11658        94  CHL1      C10           -25.8886005904      -34.3191640207       14.7399600000  MEMB      94              0.0000000000
     11659        94  CHL1      C19           -25.0059878067      -33.1804805358       15.2729500000  MEMB      94              0.0000000000
     11660        94  CHL1      H19A          -23.9536284491      -33.2625098958       14.9263500000  MEMB      94              0.0000000000
     11661        94  CHL1      H19B          -25.2382065431      -32.1377403383       14.9678400000  MEMB      94              0.0000000000
     11662        94  CHL1      H19C          -24.9050759893      -33.1690893453       16.3793000000  MEMB      94              0.0000000000
     11663        94  CHL1      C1            -27.2415448564      -34.4285099015       15.4196400000  MEMB      94              0.0000000000
     11664        94  CHL1      H1A           -27.6416906813      -33.4003642738       15.2888100000  MEMB      94              0.0000000000
     11665        94  CHL1      H1B           -27.8950757798      -35.2211938839       14.9967100000  MEMB      94              0.0000000000
     11666        94  CHL1      C2            -27.2022987110      -34.5717496326       16.9623900000  MEMB      94              0.0000000000
     11667        94  CHL1      H2A           -28.1055474026      -34.6511208640       17.6043900000  MEMB      94              0.0000000000
     11668        94  CHL1      H2B           -26.5438498632      -33.7613622320       17.3419100000  MEMB      94              0.0000000000
     11669        94  CHL1      C20           -26.2629714888      -31.9514294414        7.8174400000  MEMB      94              0.0000000000
     11670        94  CHL1      H20           -25.2014144551      -31.6253027097        7.7846600000  MEMB      94              0.0000000000
     11671        94  CHL1      C21           -27.1517451054      -30.8899614612        8.4659200000  MEMB      94              0.0000000000
     11672        94  CHL1      H21A          -26.5949003421      -30.3611343676        9.2687800000  MEMB      94              0.0000000000
     11673        94  CHL1      H21B          -28.0084035878      -31.4398432056        8.9110000000  MEMB      94              0.0000000000
     11674        94  CHL1      H21C          -27.5876174606      -30.2060126671        7.7066100000  MEMB      94              0.0000000000
     11675        94  CHL1      C22           -26.8509796609      -32.4770945022        6.4955100000  MEMB      94              0.0000000000
     11676        94  CHL1      H22A          -26.0740014291      -33.1283288411        6.0410600000  MEMB      94              0.0000000000
     11677        94  CHL1      H22B          -27.7392086879      -33.1161062169        6.6879400000  MEMB      94              0.0000000000
     11678        94  CHL1      C23           -27.1481657497      -31.4797393687        5.4007900000  MEMB      94              0.0000000000
     11679        94  CHL1      H23A          -28.0231871182      -30.8618081159        5.6954400000  MEMB      94              0.0000000000
     11680        94  CHL1      H23B          -26.2589673178      -30.8419294252        5.2088500000  MEMB      94              0.0000000000
     11681        94  CHL1      C24           -27.5294193864      -32.1244486695        4.0130300000  MEMB      94              0.0000000000
     11682        94  CHL1      H24A          -26.6964009421      -32.7728238504        3.6665900000  MEMB      94              0.0000000000
     11683        94  CHL1      H24B          -28.4430666928      -32.7041900411        4.2649200000  MEMB      94              0.0000000000
     11684        94  CHL1      C25           -27.8158663721      -31.1960755979        2.8075200000  MEMB      94              0.0000000000
     11685        94  CHL1      H25           -28.6652366280      -30.5707306940        3.1565800000  MEMB      94              0.0000000000
     11686        94  CHL1      C26           -26.6620625917      -30.4971724080        2.2436900000  MEMB      94              0.0000000000
     11687        94  CHL1      H26A          -25.8896550952      -31.2429189841        1.9580900000  MEMB      94              0.0000000000
     11688        94  CHL1      H26B          -26.9077131307      -30.0558977824        1.2541100000  MEMB      94              0.0000000000
     11689        94  CHL1      H26C          -26.2042229761      -29.6908629576        2.8557000000  MEMB      94              0.0000000000
     11690        94  CHL1      C27           -28.3820859677      -32.1237383210        1.6378200000  MEMB      94              0.0000000000
     11691        94  CHL1      H27A          -27.5283063377      -32.5818580043        1.0942200000  MEMB      94              0.0000000000
     11692        94  CHL1      H27B          -29.1696055375      -32.8563729775        1.9159700000  MEMB      94              0.0000000000
     11693        94  CHL1      H27C          -28.9243147013      -31.4202756555        0.9703900000  MEMB      94              0.0000000000
     11694        95  23SM      N              30.0992461920      -33.1884693915       28.0458621053  MEMB      95              0.0000000000
     11695        95  23SM      C15            29.6496050781      -31.9229230583       28.6488264059  MEMB      95              0.0000000000
     11696        95  23SM      H15A           29.0114348611      -32.2598956565       29.4523115933  MEMB      95              0.0000000000
     11697        95  23SM      H15B           29.1753926849      -31.3822642419       27.8430904963  MEMB      95              0.0000000000
     11698        95  23SM      H15C           30.5308514383      -31.4271378195       29.0283022446  MEMB      95              0.0000000000
     11699        95  23SM      C14            31.2008211107      -32.9562465709       27.0017778081  MEMB      95              0.0000000000
     11700        95  23SM      H14A           31.3443194171      -33.7777562459       26.3155343277  MEMB      95              0.0000000000
     11701        95  23SM      H14B           32.0993043119      -32.7565334226       27.5667932571  MEMB      95              0.0000000000
     11702        95  23SM      H14C           30.9092645947      -32.0648374481       26.4662549791  MEMB      95              0.0000000000
     11703        95  23SM      C13            30.7003566681      -34.1125717390       29.0862369723  MEMB      95              0.0000000000
     11704        95  23SM      H13A           30.7987273662      -35.0504711245       28.5598645619  MEMB      95              0.0000000000
     11705        95  23SM      H13B           29.9883091210      -34.2892975572       29.8787999310  MEMB      95              0.0000000000
     11706        95  23SM      H13C           31.5872005387      -33.6311597077       29.4711399392  MEMB      95              0.0000000000
     11707        95  23SM      C12            29.0109175217      -34.0269500469       27.3777386292  MEMB      95              0.0000000000
     11708        95  23SM      H12A           28.3124934301      -34.3020958813       28.1542041177  MEMB      95              0.0000000000
     11709        95  23SM      H12B           29.5306348390      -34.9001723911       27.0119836950  MEMB      95              0.0000000000
     11710        95  23SM      C11            28.2348145200      -33.4668169600       26.1501056967  MEMB      95              0.0000000000
     11711        95  23SM      H11A           27.7032865859      -32.5054310997       26.3160467429  MEMB      95              0.0000000000
     11712        95  23SM      H11B           27.3174207431      -34.0408396757       25.8986943741  MEMB      95              0.0000000000
     11713        95  23SM      P              29.1298085369      -34.4881942323       23.9309534060  MEMB      95              0.0000000000
     11714        95  23SM      O13            29.2406754911      -35.7599339619       24.6237842730  MEMB      95              0.0000000000
     11715        95  23SM      O14            27.9160530898      -34.3865266347       23.0684061111  MEMB      95              0.0000000000
     11716        95  23SM      O11            30.5142636940      -34.3085043559       23.1041552874  MEMB      95              0.0000000000
     11717        95  23SM      O12            29.0124953615      -33.3083723544       24.9621533432  MEMB      95              0.0000000000
     11718        95  23SM      C1S            30.8232874631      -32.9868430373       22.7531133109  MEMB      95              0.0000000000
     11719        95  23SM      H1S            31.9187346211      -32.9041949329       22.9189021205  MEMB      95              0.0000000000
     11720        95  23SM      H1T            30.5107490729      -32.1740635772       23.4430629574  MEMB      95              0.0000000000
     11721        95  23SM      NF             29.0732370366      -32.3767501751       21.1448591681  MEMB      95              0.0000000000
     11722        95  23SM      HNF            28.5684079788      -32.8862630698       20.4523612703  MEMB      95              0.0000000000
     11723        95  23SM      C2S            30.4786070222      -32.7327231461       21.2532142598  MEMB      95              0.0000000000
     11724        95  23SM      H2S            31.0550775706      -31.8249406667       20.9740481528  MEMB      95              0.0000000000
     11725        95  23SM      C3S            30.7881425470      -33.9740994920       20.4580546475  MEMB      95              0.0000000000
     11726        95  23SM      H3S            30.2106803906      -34.8660857184       20.7824296805  MEMB      95              0.0000000000
     11727        95  23SM      O3             32.1738523062      -34.2712161941       20.6268833601  MEMB      95              0.0000000000
     11728        95  23SM      HO3            32.3708218111      -33.6824433669       21.3591058928  MEMB      95              0.0000000000
     11729        95  23SM      C4S            30.4202455640      -33.8028300698       18.9814661895  MEMB      95              0.0000000000
     11730        95  23SM      H4S            29.6625831896      -34.5159972589       18.6246186267  MEMB      95              0.0000000000
     11731        95  23SM      C5S            30.8596174235      -32.8238673324       18.1836643444  MEMB      95              0.0000000000
     11732        95  23SM      H5S            31.3852300302      -31.9977952737       18.6849985342  MEMB      95              0.0000000000
     11733        95  23SM      C6S            30.4612561659      -32.6860670125       16.7231122759  MEMB      95              0.0000000000
     11734        95  23SM      H6S            29.5861887230      -32.0027846590       16.6818434489  MEMB      95              0.0000000000
     11735        95  23SM      H6T            30.2540592106      -33.6974280388       16.3125766608  MEMB      95              0.0000000000
     11736        95  23SM      C7S            31.5461515735      -31.9441335630       15.9222811766  MEMB      95              0.0000000000
     11737        95  23SM      H7S            32.4771849910      -32.5471672218       15.9843150143  MEMB      95              0.0000000000
     11738        95  23SM      H7T            31.8091649834      -31.0226340647       16.4844054555  MEMB      95              0.0000000000
     11739        95  23SM      C8S            31.0277786964      -31.5096106807       14.5082832475  MEMB      95              0.0000000000
     11740        95  23SM      H8S            30.0384451540      -31.0104485403       14.5881395119  MEMB      95              0.0000000000
     11741        95  23SM      H8T            30.7755143762      -32.4019140413       13.8963365914  MEMB      95              0.0000000000
     11742        95  23SM      C9S            32.0511928165      -30.6176612655       13.8153539850  MEMB      95              0.0000000000
     11743        95  23SM      H9S            32.9899513277      -31.2094330497       13.7618791357  MEMB      95              0.0000000000
     11744        95  23SM      H9T            32.2482654893      -29.8546143775       14.5984522398  MEMB      95              0.0000000000
     11745        95  23SM      C10S           31.4908465353      -30.2342896209       12.4480722020  MEMB      95              0.0000000000
     11746        95  23SM      H10S           32.2257415121      -29.5076621400       12.0403185336  MEMB      95              0.0000000000
     11747        95  23SM      H10T           30.4711963269      -29.8463194981       12.6581054561  MEMB      95              0.0000000000
     11748        95  23SM      C11S           31.2117193527      -31.3643040300       11.4411967255  MEMB      95              0.0000000000
     11749        95  23SM      H11S           30.2555187334      -31.8426414013       11.7431811937  MEMB      95              0.0000000000
     11750        95  23SM      H11T           31.9938075179      -32.1524216946       11.4020863140  MEMB      95              0.0000000000
     11751        95  23SM      C12S           31.1098325547      -30.7547012226       10.0548323948  MEMB      95              0.0000000000
     11752        95  23SM      H12S           32.0422936137      -30.2749119090        9.6879007998  MEMB      95              0.0000000000
     11753        95  23SM      H12T           30.3790660439      -29.9232782778       10.1498953261  MEMB      95              0.0000000000
     11754        95  23SM      C13S           30.5378955314      -31.6264158054        8.9060897458  MEMB      95              0.0000000000
     11755        95  23SM      H13S           29.5935563347      -32.1255602586        9.2117030095  MEMB      95              0.0000000000
     11756        95  23SM      H13T           31.3965283422      -32.3246314277        8.8082856286  MEMB      95              0.0000000000
     11757        95  23SM      C14S           30.2657166371      -31.0069152194        7.5598376803  MEMB      95              0.0000000000
     11758        95  23SM      H14S           31.1906002486      -30.4632479642        7.2711560000  MEMB      95              0.0000000000
     11759        95  23SM      H14T           29.4044209907      -30.3272168034        7.7344840419  MEMB      95              0.0000000000
     11760        95  23SM      C15S           29.9207493087      -31.9346439872        6.3965317162  MEMB      95              0.0000000000
     11761        95  23SM      H15S           29.2271795403      -32.7380646741        6.7248561056  MEMB      95              0.0000000000
     11762        95  23SM      H15T           30.8338969042      -32.4910395610        6.0950251852  MEMB      95              0.0000000000
     11763        95  23SM      C16S           29.3777209932      -31.1014035983        5.2222395352  MEMB      95              0.0000000000
     11764        95  23SM      H16S           30.2581848530      -30.6446485253        4.7217615559  MEMB      95              0.0000000000
     11765        95  23SM      H16T           28.6109302900      -30.3158333247        5.3932159399  MEMB      95              0.0000000000
     11766        95  23SM      C17S           28.7496393954      -32.0506223310        4.1313703594  MEMB      95              0.0000000000
     11767        95  23SM      H17S           28.0108657677      -32.7241991897        4.6159603781  MEMB      95              0.0000000000
     11768        95  23SM      H17T           29.6121070567      -32.6981443545        3.8645637943  MEMB      95              0.0000000000
     11769        95  23SM      C18S           28.1563377309      -31.3309483620        2.9296446786  MEMB      95              0.0000000000
     11770        95  23SM      H18S           28.8951153234      -30.5924983824        2.5511991935  MEMB      95              0.0000000000
     11771        95  23SM      H18T           27.1840465676      -30.8483436084        3.1664214535  MEMB      95              0.0000000000
     11772        95  23SM      H18U           28.0111881075      -31.9751195873        2.0361708079  MEMB      95              0.0000000000
     11773        95  23SM      C1F            28.6393005997      -31.2134641724       21.7162546541  MEMB      95              0.0000000000
     11774        95  23SM      OF             29.4138491713      -30.3940374685       22.2420110763  MEMB      95              0.0000000000
     11775        95  23SM      C2F            27.1687251846      -31.0165206298       21.7437017093  MEMB      95              0.0000000000
     11776        95  23SM      H2F            26.9348054726      -30.5296741785       22.7145687860  MEMB      95              0.0000000000
     11777        95  23SM      H2G            26.5799546116      -31.9530664527       21.6409785989  MEMB      95              0.0000000000
     11778        95  23SM      C3F            26.7396572244      -30.0790202520       20.6018380587  MEMB      95              0.0000000000
     11779        95  23SM      H3F            27.0855128268      -29.0439686712       20.8100996841  MEMB      95              0.0000000000
     11780        95  23SM      H3G            25.6396312081      -29.9937297259       20.7321809195  MEMB      95              0.0000000000
     11781        95  23SM      C4F            27.0222297002      -30.3635735116       19.1071698451  MEMB      95              0.0000000000
     11782        95  23SM      H4F            28.1245840031      -30.3912495264       18.9716332173  MEMB      95              0.0000000000
     11783        95  23SM      H4G            26.4809510899      -29.5808588100       18.5338501008  MEMB      95              0.0000000000
     11784        95  23SM      C5F            26.4955784805      -31.7668250875       18.6358425300  MEMB      95              0.0000000000
     11785        95  23SM      H5F            25.4531920395      -31.9335240766       18.9821993077  MEMB      95              0.0000000000
     11786        95  23SM      H5G            27.2144041365      -32.4942251228       19.0700078311  MEMB      95              0.0000000000
     11787        95  23SM      C6F            26.5507342115      -31.7839658171       17.1061585449  MEMB      95              0.0000000000
     11788        95  23SM      H6F            27.6053136474      -31.7316555089       16.7605476994  MEMB      95              0.0000000000
     11789        95  23SM      H6G            26.0046421963      -30.8741280666       16.7770680966  MEMB      95              0.0000000000
     11790        95  23SM      C7F            26.0531246430      -33.1199738369       16.5935516047  MEMB      95              0.0000000000
     11791        95  23SM      H7F            25.0524581317      -33.2688585697       17.0527033689  MEMB      95              0.0000000000
     11792        95  23SM      H7G            26.6902140954      -33.8725734358       17.1054422035  MEMB      95              0.0000000000
     11793        95  23SM      C8F            25.9643452260      -33.1042961026       15.0826484657  MEMB      95              0.0000000000
     11794        95  23SM      H8F            25.5579403307      -32.1042299549       14.8199254738  MEMB      95              0.0000000000
     11795        95  23SM      H8G            25.0609448175      -33.7242083334       14.8985354235  MEMB      95              0.0000000000
     11796        95  23SM      C9F            27.1895074975      -33.5144716243       14.4063060148  MEMB      95              0.0000000000
     11797        95  23SM      H9F            27.5703350993      -34.3109554754       15.0807722374  MEMB      95              0.0000000000
     11798        95  23SM      H9G            27.9447053156      -32.7000506415       14.3795550333  MEMB      95              0.0000000000
     11799        95  23SM      C10F           27.0235995092      -34.1474258746       12.9723997745  MEMB      95              0.0000000000
     11800        95  23SM      H10F           26.0116968399      -34.6058153302       12.9883195463  MEMB      95              0.0000000000
     11801        95  23SM      H10G           27.7506127611      -34.9184133660       12.6387066192  MEMB      95              0.0000000000
     11802        95  23SM      C11F           27.0071328432      -33.1148108500       11.8476987127  MEMB      95              0.0000000000
     11803        95  23SM      H11F           28.0428963205      -32.7740484537       11.6346349486  MEMB      95              0.0000000000
     11804        95  23SM      H11G           26.3630655390      -32.2841051898       12.2074579331  MEMB      95              0.0000000000
     11805        95  23SM      C12F           26.4733186354      -33.6437229397       10.4354064219  MEMB      95              0.0000000000
     11806        95  23SM      H12F           26.8526191272      -32.8995357911        9.7028512675  MEMB      95              0.0000000000
     11807        95  23SM      H12G           25.3713122725      -33.5952847481       10.5679072658  MEMB      95              0.0000000000
     11808        95  23SM      C13F           26.9932907528      -34.9710749062        9.9549693632  MEMB      95              0.0000000000
     11809        95  23SM      H13F           26.3897040934      -35.3849351740        9.1190725232  MEMB      95              0.0000000000
     11810        95  23SM      H13G           26.8922684095      -35.6246640783       10.8476826654  MEMB      95              0.0000000000
     11811        95  23SM      C14F           28.4934611447      -34.8514136730        9.6377113149  MEMB      95              0.0000000000
     11812        95  23SM      H14F           28.9941771190      -34.3787795731       10.5096172676  MEMB      95              0.0000000000
     11813        95  23SM      H14G           28.6320819508      -34.0878925841        8.8426378287  MEMB      95              0.0000000000
     11814        95  23SM      C15F           29.2237679926      -36.1538038594        9.2496620104  MEMB      95              0.0000000000
     11815        95  23SM      H15F           28.5782188637      -37.0501378623        9.1306131494  MEMB      95              0.0000000000
     11816        95  23SM      H15G           30.0921466907      -36.3786410301        9.9051676115  MEMB      95              0.0000000000
     11817        95  23SM      C16F           29.8437004064      -36.0827542875        7.8101823574  MEMB      95              0.0000000000
     11818        95  23SM      H16F           30.7586075801      -35.4524711338        7.8071808348  MEMB      95              0.0000000000
     11819        95  23SM      H16G           29.0620585503      -35.6738048176        7.1348174449  MEMB      95              0.0000000000
     11820        95  23SM      C17F           30.2394873759      -37.4345914073        7.1861616552  MEMB      95              0.0000000000
     11821        95  23SM      H17F           29.4056040880      -38.1660168561        7.2492193577  MEMB      95              0.0000000000
     11822        95  23SM      H17G           31.0622920264      -37.7905186795        7.8423851618  MEMB      95              0.0000000000
     11823        95  23SM      C18F           30.6845725520      -37.3318696382        5.7486456833  MEMB      95              0.0000000000
     11824        95  23SM      H18F           29.7988295094      -37.3039543109        5.0785711203  MEMB      95              0.0000000000
     11825        95  23SM      H18G           31.3593765864      -38.1678670264        5.4656822741  MEMB      95              0.0000000000
     11826        95  23SM      C19F           31.5955674172      -36.0315871090        5.5182226674  MEMB      95              0.0000000000
     11827        95  23SM      H19F           32.1492321660      -35.8211915090        6.4581747067  MEMB      95              0.0000000000
     11828        95  23SM      H19G           30.9054936253      -35.1610470878        5.5015110936  MEMB      95              0.0000000000
     11829        95  23SM      C20F           32.3587592198      -36.1274518761        4.1959554090  MEMB      95              0.0000000000
     11830        95  23SM      H20F           33.1346545495      -36.8987503203        4.3893635893  MEMB      95              0.0000000000
     11831        95  23SM      H20G           32.7886903743      -35.1528281149        3.8803780953  MEMB      95              0.0000000000
     11832        95  23SM      C21F           31.5358242112      -36.6843009848        2.9897021939  MEMB      95              0.0000000000
     11833        95  23SM      H21F           30.5446781308      -36.1824039712        2.9967408650  MEMB      95              0.0000000000
     11834        95  23SM      H21G           31.3157253291      -37.7731069305        3.0091693478  MEMB      95              0.0000000000
     11835        95  23SM      C22F           32.1740403800      -36.4429171937        1.6333584857  MEMB      95              0.0000000000
     11836        95  23SM      H22F           31.6131280889      -36.9185607328        0.8006158558  MEMB      95              0.0000000000
     11837        95  23SM      H22G           33.1802808879      -36.9133226260        1.6561653205  MEMB      95              0.0000000000
     11838        95  23SM      C23F           32.3914407765      -34.9630025632        1.2891844537  MEMB      95              0.0000000000
     11839        95  23SM      H23F           32.7910886864      -34.8804945209        0.2558433390  MEMB      95              0.0000000000
     11840        95  23SM      H23G           33.0779723195      -34.3840847196        1.9432865015  MEMB      95              0.0000000000
     11841        95  23SM      H23H           31.4143929250      -34.4347352502        1.2640449835  MEMB      95              0.0000000000
     11842        96  DOPE      N              36.4331613494       31.2152415673       20.9091765465  MEMB      96              0.0000000000
     11843        96  DOPE      HN1            36.4900046143       31.4569671186       19.8992568347  MEMB      96              0.0000000000
     11844        96  DOPE      HN2            35.4695817117       31.3347652011       21.2817729671  MEMB      96              0.0000000000
     11845        96  DOPE      HN3            37.0780240053       31.7771616383       21.5007827924  MEMB      96              0.0000000000
     11846        96  DOPE      C12            36.8474576931       29.8401726854       20.9520302966  MEMB      96              0.0000000000
     11847        96  DOPE      H12A           36.9861671675       29.5476831212       22.0148240752  MEMB      96              0.0000000000
     11848        96  DOPE      H12B           37.7765574895       29.7940998521       20.3445996983  MEMB      96              0.0000000000
     11849        96  DOPE      C11            35.8837465476       28.8787244625       20.4251987534  MEMB      96              0.0000000000
     11850        96  DOPE      H11A           34.9725261769       28.8818169203       21.0607998877  MEMB      96              0.0000000000
     11851        96  DOPE      H11B           36.3433850106       27.8834956586       20.6056789056  MEMB      96              0.0000000000
     11852        96  DOPE      P              36.4102258556       28.6345163406       17.8607505123  MEMB      96              0.0000000000
     11853        96  DOPE      O13            37.4891721307       29.5904977614       17.7678537898  MEMB      96              0.0000000000
     11854        96  DOPE      O14            35.5420061685       28.4597373989       16.6472297911  MEMB      96              0.0000000000
     11855        96  DOPE      O11            37.0198769956       27.2085792092       18.3563546193  MEMB      96              0.0000000000
     11856        96  DOPE      O12            35.5053412844       29.1248449729       19.0814057151  MEMB      96              0.0000000000
     11857        96  DOPE      C1             36.3994188261       25.9846030671       17.9369846267  MEMB      96              0.0000000000
     11858        96  DOPE      HA             35.2950937583       26.0168123585       17.8197259004  MEMB      96              0.0000000000
     11859        96  DOPE      HB             36.5781748786       25.2107734676       18.7138725877  MEMB      96              0.0000000000
     11860        96  DOPE      C2             37.1674485225       25.4224441219       16.6826669773  MEMB      96              0.0000000000
     11861        96  DOPE      HS             38.1165488236       24.9227126473       16.9721455616  MEMB      96              0.0000000000
     11862        96  DOPE      O21            37.4265815014       26.4690771200       15.8551785747  MEMB      96              0.0000000000
     11863        96  DOPE      C21            38.2316579468       26.3162727883       14.8188523153  MEMB      96              0.0000000000
     11864        96  DOPE      O22            38.7316567791       25.2616435105       14.5330507167  MEMB      96              0.0000000000
     11865        96  DOPE      C22            38.4421626945       27.5435563773       13.8287957841  MEMB      96              0.0000000000
     11866        96  DOPE      H2R            39.3655296457       27.3487450805       13.2424830731  MEMB      96              0.0000000000
     11867        96  DOPE      H2S            38.5290215415       28.4737969403       14.4299852317  MEMB      96              0.0000000000
     11868        96  DOPE      C3             36.2358310361       24.3556600232       16.1038718727  MEMB      96              0.0000000000
     11869        96  DOPE      HX             35.7150217747       23.8048602213       16.9160902277  MEMB      96              0.0000000000
     11870        96  DOPE      HY             36.8193248554       23.6974565662       15.4251788100  MEMB      96              0.0000000000
     11871        96  DOPE      O31            35.2385599817       25.0391889710       15.4670061379  MEMB      96              0.0000000000
     11872        96  DOPE      C31            34.6813376620       24.5791642047       14.3557359550  MEMB      96              0.0000000000
     11873        96  DOPE      O32            34.9096718547       23.5438926043       13.7483397618  MEMB      96              0.0000000000
     11874        96  DOPE      C32            33.8602070650       25.7862272511       13.8437058178  MEMB      96              0.0000000000
     11875        96  DOPE      H2X            33.0223176984       25.9175482171       14.5613528902  MEMB      96              0.0000000000
     11876        96  DOPE      H2Y            34.4282927511       26.7409827312       13.8372495000  MEMB      96              0.0000000000
     11877        96  DOPE      C23            37.2679258450       27.7764609585       12.9084877882  MEMB      96              0.0000000000
     11878        96  DOPE      H3R            36.3991905258       28.1640987422       13.4823840120  MEMB      96              0.0000000000
     11879        96  DOPE      H3S            36.9180773110       26.8400300666       12.4236948610  MEMB      96              0.0000000000
     11880        96  DOPE      C24            37.5078883509       28.7975214679       11.7771868832  MEMB      96              0.0000000000
     11881        96  DOPE      H4R            38.4649267358       28.5650383359       11.2630368111  MEMB      96              0.0000000000
     11882        96  DOPE      H4S            37.5890958061       29.8158545365       12.2139068770  MEMB      96              0.0000000000
     11883        96  DOPE      C25            36.4231133839       28.8588630884       10.7052166552  MEMB      96              0.0000000000
     11884        96  DOPE      H5R            35.4513461069       29.1509981050       11.1575952150  MEMB      96              0.0000000000
     11885        96  DOPE      H5S            36.2583715607       27.8016361186       10.4061300197  MEMB      96              0.0000000000
     11886        96  DOPE      C26            36.6673356945       29.8531053845        9.6070676913  MEMB      96              0.0000000000
     11887        96  DOPE      H6R            37.6323635738       29.6015506145        9.1174122289  MEMB      96              0.0000000000
     11888        96  DOPE      H6S            36.6113527880       30.9284033311        9.8807845781  MEMB      96              0.0000000000
     11889        96  DOPE      C27            35.5141562677       29.7231893888        8.5713260582  MEMB      96              0.0000000000
     11890        96  DOPE      H7R            34.6001161509       30.1661764422        9.0214528681  MEMB      96              0.0000000000
     11891        96  DOPE      H7S            35.3209490197       28.6423628294        8.4016013818  MEMB      96              0.0000000000
     11892        96  DOPE      C28            35.6489603758       30.5131722103        7.2392379363  MEMB      96              0.0000000000
     11893        96  DOPE      H8R            36.4747510823       31.2344858773        7.4183941971  MEMB      96              0.0000000000
     11894        96  DOPE      H8S            34.7116854101       31.1057586850        7.1708437737  MEMB      96              0.0000000000
     11895        96  DOPE      C29            35.9767493377       29.7757703714        6.0020542340  MEMB      96              0.0000000000
     11896        96  DOPE      H9R            36.5270540796       28.8241058559        6.0407717054  MEMB      96              0.0000000000
     11897        96  DOPE      C210           35.5135283823       30.0992038185        4.7840916876  MEMB      96              0.0000000000
     11898        96  DOPE      H10R           35.7653581383       29.3396582650        4.0293259775  MEMB      96              0.0000000000
     11899        96  DOPE      C211           34.5327266897       31.2795977255        4.5117423770  MEMB      96              0.0000000000
     11900        96  DOPE      H11R           34.8031260799       31.8519728016        3.5987296295  MEMB      96              0.0000000000
     11901        96  DOPE      H11S           34.6093202279       32.1114395605        5.2441998061  MEMB      96              0.0000000000
     11902        96  DOPE      C212           33.0390605617       30.9363376525        4.4611133163  MEMB      96              0.0000000000
     11903        96  DOPE      H12R           32.6491802677       31.9539441311        4.2447996396  MEMB      96              0.0000000000
     11904        96  DOPE      H12S           32.7637668873       30.5212391704        5.4542037208  MEMB      96              0.0000000000
     11905        96  DOPE      C213           32.6857893659       30.0662260959        3.3095005630  MEMB      96              0.0000000000
     11906        96  DOPE      H13R           33.2413561661       29.1124627446        3.4359990818  MEMB      96              0.0000000000
     11907        96  DOPE      H13S           33.0386910525       30.5119777864        2.3549920616  MEMB      96              0.0000000000
     11908        96  DOPE      C214           31.1966070041       29.7825733447        3.1881368409  MEMB      96              0.0000000000
     11909        96  DOPE      H14R           30.5107257828       30.5766634015        3.5532511973  MEMB      96              0.0000000000
     11910        96  DOPE      H14S           30.9364157242       28.8785489025        3.7792047488  MEMB      96              0.0000000000
     11911        96  DOPE      C215           30.8118927264       29.5392100633        1.7293800706  MEMB      96              0.0000000000
     11912        96  DOPE      H15R           30.9367880733       30.4126183714        1.0541908417  MEMB      96              0.0000000000
     11913        96  DOPE      H15S           29.7416718208       29.2410608372        1.7368728662  MEMB      96              0.0000000000
     11914        96  DOPE      C216           31.4853270505       28.2007664933        1.1688004546  MEMB      96              0.0000000000
     11915        96  DOPE      H16R           30.9207955483       27.6580703543        0.3806975997  MEMB      96              0.0000000000
     11916        96  DOPE      H16S           31.5929523967       27.4573944787        1.9874181485  MEMB      96              0.0000000000
     11917        96  DOPE      C217           32.7859434918       28.4909511463        0.3009551735  MEMB      96              0.0000000000
     11918        96  DOPE      H17R           33.3139324711       27.5168502052        0.3826615112  MEMB      96              0.0000000000
     11919        96  DOPE      H17S           33.3897884232       29.3178950247        0.7320645548  MEMB      96              0.0000000000
     11920        96  DOPE      C218           32.4762805128       28.7345461466       -1.1850267807  MEMB      96              0.0000000000
     11921        96  DOPE      H18R           31.6706492574       28.0230746858       -1.4662516274  MEMB      96              0.0000000000
     11922        96  DOPE      H18S           33.3059343023       28.6073346534       -1.9129092849  MEMB      96              0.0000000000
     11923        96  DOPE      H18T           32.0351481083       29.7375697357       -1.3685118997  MEMB      96              0.0000000000
     11924        96  DOPE      C33            33.3122879278       25.5225000707       12.3717971440  MEMB      96              0.0000000000
     11925        96  DOPE      H3X            32.3104927408       26.0002868260       12.3223261866  MEMB      96              0.0000000000
     11926        96  DOPE      H3Y            33.0891845383       24.4365975304       12.2985753073  MEMB      96              0.0000000000
     11927        96  DOPE      C34            34.4087886255       25.8287425673       11.3192295777  MEMB      96              0.0000000000
     11928        96  DOPE      H4X            34.4706372237       26.9214289462       11.1280952372  MEMB      96              0.0000000000
     11929        96  DOPE      H4Y            35.2759489177       25.3381823970       11.8108645226  MEMB      96              0.0000000000
     11930        96  DOPE      C35            34.1143092499       25.0937622985        9.9973975984  MEMB      96              0.0000000000
     11931        96  DOPE      H5X            33.3230321013       25.6399156999        9.4406949407  MEMB      96              0.0000000000
     11932        96  DOPE      H5Y            33.7795384262       24.0454576976       10.1500628573  MEMB      96              0.0000000000
     11933        96  DOPE      C36            35.3713886922       24.9083539097        9.2191374188  MEMB      96              0.0000000000
     11934        96  DOPE      H6X            36.0859572519       24.2469526314        9.7541715744  MEMB      96              0.0000000000
     11935        96  DOPE      H6Y            35.8616178230       25.9050331961        9.2441748895  MEMB      96              0.0000000000
     11936        96  DOPE      C37            35.2620345022       24.4418271404        7.8046979896  MEMB      96              0.0000000000
     11937        96  DOPE      H7X            36.2049039479       23.9305225757        7.5150671280  MEMB      96              0.0000000000
     11938        96  DOPE      H7Y            34.4997884063       23.6335908219        7.7972287050  MEMB      96              0.0000000000
     11939        96  DOPE      C38            34.8283082816       25.5706066312        6.8136549259  MEMB      96              0.0000000000
     11940        96  DOPE      H8X            35.8131974862       26.0322973062        6.5874780520  MEMB      96              0.0000000000
     11941        96  DOPE      H8Y            34.1541669921       26.2233062118        7.4084971057  MEMB      96              0.0000000000
     11942        96  DOPE      C39            34.2738784354       25.0685792052        5.5475116181  MEMB      96              0.0000000000
     11943        96  DOPE      H9X            33.1788178374       24.9761963394        5.4994703246  MEMB      96              0.0000000000
     11944        96  DOPE      C310           34.9706451980       24.6868398684        4.4349241925  MEMB      96              0.0000000000
     11945        96  DOPE      H10X           34.3971479996       24.3325767958        3.5656721707  MEMB      96              0.0000000000
     11946        96  DOPE      C311           36.4670765068       24.6565576341        4.1772173221  MEMB      96              0.0000000000
     11947        96  DOPE      H11X           37.0454667266       25.2534654323        4.9144329943  MEMB      96              0.0000000000
     11948        96  DOPE      H11Y           36.8152562334       23.6174859361        4.3600340792  MEMB      96              0.0000000000
     11949        96  DOPE      C312           36.8006875240       25.2444622778        2.8137012371  MEMB      96              0.0000000000
     11950        96  DOPE      H12X           36.1454638913       24.8047859110        2.0315953308  MEMB      96              0.0000000000
     11951        96  DOPE      H12Y           37.8560304169       25.0717944761        2.5124408667  MEMB      96              0.0000000000
     11952        96  DOPE      C313           36.6548155818       26.7598715019        2.7028478428  MEMB      96              0.0000000000
     11953        96  DOPE      H13X           35.5625934468       26.9063322219        2.5617053464  MEMB      96              0.0000000000
     11954        96  DOPE      H13Y           37.0031102465       27.2945588435        3.6123102278  MEMB      96              0.0000000000
     11955        96  DOPE      C314           37.3081452319       27.4791427762        1.5112124155  MEMB      96              0.0000000000
     11956        96  DOPE      H14X           38.3855954064       27.2082114552        1.5155719536  MEMB      96              0.0000000000
     11957        96  DOPE      H14Y           37.1673300152       28.5650707260        1.6989706673  MEMB      96              0.0000000000
     11958        96  DOPE      C315           36.6768456415       27.1512977433        0.2183826378  MEMB      96              0.0000000000
     11959        96  DOPE      H15X           35.5720426280       27.2681528734        0.2270912880  MEMB      96              0.0000000000
     11960        96  DOPE      H15Y           36.8083756767       26.0542689889        0.1019829631  MEMB      96              0.0000000000
     11961        96  DOPE      C316           37.3546303068       27.9387834381       -0.8933060970  MEMB      96              0.0000000000
     11962        96  DOPE      H16X           38.4539505995       27.8273741160       -0.7775312744  MEMB      96              0.0000000000
     11963        96  DOPE      H16Y           37.1984310427       29.0345797498       -0.7976294402  MEMB      96              0.0000000000
     11964        96  DOPE      C317           37.1645699518       27.3398609820       -2.3162722798  MEMB      96              0.0000000000
     11965        96  DOPE      H17X           37.7002861971       28.0377142996       -2.9947494401  MEMB      96              0.0000000000
     11966        96  DOPE      H17Y           37.7578353102       26.4034465171       -2.2422094465  MEMB      96              0.0000000000
     11967        96  DOPE      C318           35.8065401217       27.0418112678       -2.7953402301  MEMB      96              0.0000000000
     11968        96  DOPE      H18X           35.2738049673       26.3385694467       -2.1200884628  MEMB      96              0.0000000000
     11969        96  DOPE      H18Y           35.2601651956       28.0091673383       -2.7995727566  MEMB      96              0.0000000000
     11970        96  DOPE      H18Z           35.8901708568       26.6869242366       -3.8448080878  MEMB      96              0.0000000000
     11971        97  DOPE      N              32.2294752285      -30.8181982170       18.1308551500  MEMB      97              0.0000000000
     11972        97  DOPE      HN1            31.6458837650      -30.1151236952       18.6275513645  MEMB      97              0.0000000000
     11973        97  DOPE      HN2            32.3129441820      -30.6229033782       17.1127722826  MEMB      97              0.0000000000
     11974        97  DOPE      HN3            31.8535962249      -31.7533148571       18.3875097079  MEMB      97              0.0000000000
     11975        97  DOPE      C12            33.5404304136      -30.8122420844       18.8289414225  MEMB      97              0.0000000000
     11976        97  DOPE      H12A           34.1255283096      -31.6753513869       18.4455045294  MEMB      97              0.0000000000
     11977        97  DOPE      H12B           33.3445043702      -30.8972564327       19.9192195969  MEMB      97              0.0000000000
     11978        97  DOPE      C11            34.2893732438      -29.5066960519       18.6666326664  MEMB      97              0.0000000000
     11979        97  DOPE      H11A           33.6202819433      -28.6203179889       18.6978037352  MEMB      97              0.0000000000
     11980        97  DOPE      H11B           34.7147411754      -29.5642551369       17.6419034281  MEMB      97              0.0000000000
     11981        97  DOPE      P              36.8628256573      -29.6007882733       19.3302839935  MEMB      97              0.0000000000
     11982        97  DOPE      O13            37.5647334373      -30.1408253616       20.5316523926  MEMB      97              0.0000000000
     11983        97  DOPE      O14            37.4102495658      -28.4138266970       18.5806407230  MEMB      97              0.0000000000
     11984        97  DOPE      O11            36.7185738321      -30.8291853383       18.2865296034  MEMB      97              0.0000000000
     11985        97  DOPE      O12            35.2818706080      -29.2674763558       19.6444640448  MEMB      97              0.0000000000
     11986        97  DOPE      C1             37.6624063841      -31.8273245184       18.0889871812  MEMB      97              0.0000000000
     11987        97  DOPE      HA             37.2709610707      -32.8183443670       18.4035842868  MEMB      97              0.0000000000
     11988        97  DOPE      HB             38.6645162728      -31.5749923913       18.4969399570  MEMB      97              0.0000000000
     11989        97  DOPE      C2             37.8875322925      -31.9724407083       16.5333146779  MEMB      97              0.0000000000
     11990        97  DOPE      HS             38.5972396125      -32.8205953542       16.4271524590  MEMB      97              0.0000000000
     11991        97  DOPE      O21            38.5078785023      -30.7926055114       16.0560398335  MEMB      97              0.0000000000
     11992        97  DOPE      C21            39.8184732075      -30.6760607995       16.3255842579  MEMB      97              0.0000000000
     11993        97  DOPE      O22            40.5658693841      -31.5525650422       16.7496869581  MEMB      97              0.0000000000
     11994        97  DOPE      C22            40.2584682554      -29.2467249305       15.8765331229  MEMB      97              0.0000000000
     11995        97  DOPE      H2R            41.0392950974      -29.3707266106       15.0959863528  MEMB      97              0.0000000000
     11996        97  DOPE      H2S            40.6494056335      -28.6659754150       16.7392142661  MEMB      97              0.0000000000
     11997        97  DOPE      C3             36.6286784209      -32.1995842083       15.6698078959  MEMB      97              0.0000000000
     11998        97  DOPE      HX             35.9307044848      -32.9441582072       16.1088556470  MEMB      97              0.0000000000
     11999        97  DOPE      HY             36.9604337984      -32.6008209787       14.6883457708  MEMB      97              0.0000000000
     12000        97  DOPE      O31            35.8646530640      -30.9387641276       15.6533458413  MEMB      97              0.0000000000
     12001        97  DOPE      C31            34.9352324771      -31.0061746635       14.6556837187  MEMB      97              0.0000000000
     12002        97  DOPE      O32            34.8333364856      -31.9337542096       13.9292698544  MEMB      97              0.0000000000
     12003        97  DOPE      C32            34.0887506989      -29.8017039764       14.6081319539  MEMB      97              0.0000000000
     12004        97  DOPE      H2X            33.5896324802      -29.7296351036       15.5980853396  MEMB      97              0.0000000000
     12005        97  DOPE      H2Y            34.7025642303      -28.8998486774       14.3978674101  MEMB      97              0.0000000000
     12006        97  DOPE      C23            39.0768969878      -28.3935065905       15.3577698656  MEMB      97              0.0000000000
     12007        97  DOPE      H3R            39.3678911415      -27.3558539674       15.0877320280  MEMB      97              0.0000000000
     12008        97  DOPE      H3S            38.3430781177      -28.3406460221       16.1902579913  MEMB      97              0.0000000000
     12009        97  DOPE      C24            38.6209682176      -28.8270180244       13.9550923959  MEMB      97              0.0000000000
     12010        97  DOPE      H4R            38.7023695409      -29.9147549735       13.7440870466  MEMB      97              0.0000000000
     12011        97  DOPE      H4S            39.4411964242      -28.3700946548       13.3611498563  MEMB      97              0.0000000000
     12012        97  DOPE      C25            37.4164897303      -28.0546356747       13.3612189411  MEMB      97              0.0000000000
     12013        97  DOPE      H5R            37.7088868203      -26.9908116588       13.2304404335  MEMB      97              0.0000000000
     12014        97  DOPE      H5S            36.5398472112      -28.1470471946       14.0374429536  MEMB      97              0.0000000000
     12015        97  DOPE      C26            37.0123987264      -28.6025209894       12.0266572132  MEMB      97              0.0000000000
     12016        97  DOPE      H6R            36.1858691550      -27.9610439678       11.6529230523  MEMB      97              0.0000000000
     12017        97  DOPE      H6S            36.4470799729      -29.5561991314       12.0990014968  MEMB      97              0.0000000000
     12018        97  DOPE      C27            38.0508130207      -28.8188194311       10.9585467904  MEMB      97              0.0000000000
     12019        97  DOPE      H7R            38.8426987007      -29.4837729146       11.3648410369  MEMB      97              0.0000000000
     12020        97  DOPE      H7S            38.5931949352      -27.8807645368       10.7131987675  MEMB      97              0.0000000000
     12021        97  DOPE      C28            37.5285807283      -29.2490212627        9.6102705315  MEMB      97              0.0000000000
     12022        97  DOPE      H8R            38.2642104972      -28.9317789149        8.8405130434  MEMB      97              0.0000000000
     12023        97  DOPE      H8S            36.5738661783      -28.7185683460        9.4066514906  MEMB      97              0.0000000000
     12024        97  DOPE      C29            37.2221422944      -30.7207756156        9.5190401110  MEMB      97              0.0000000000
     12025        97  DOPE      H9R            36.4089268184      -31.0178251316       10.1975987904  MEMB      97              0.0000000000
     12026        97  DOPE      C210           38.0092942326      -31.6841852114        8.9621031908  MEMB      97              0.0000000000
     12027        97  DOPE      H10R           37.7093422251      -32.7421365421        8.9343941299  MEMB      97              0.0000000000
     12028        97  DOPE      C211           39.3866657917      -31.6261423693        8.2481110371  MEMB      97              0.0000000000
     12029        97  DOPE      H11R           40.0949912587      -32.3001456364        8.7756667985  MEMB      97              0.0000000000
     12030        97  DOPE      H11S           39.7964016668      -30.6123381315        8.4446775541  MEMB      97              0.0000000000
     12031        97  DOPE      C212           39.2835595443      -31.8679038609        6.6954551051  MEMB      97              0.0000000000
     12032        97  DOPE      H12R           38.6901044103      -32.7707971591        6.4367741639  MEMB      97              0.0000000000
     12033        97  DOPE      H12S           40.3335688865      -32.0591983109        6.3868973737  MEMB      97              0.0000000000
     12034        97  DOPE      C213           38.6300932179      -30.6510857461        5.9566274244  MEMB      97              0.0000000000
     12035        97  DOPE      H13R           39.1162427700      -29.7089755556        6.2889042718  MEMB      97              0.0000000000
     12036        97  DOPE      H13S           37.5555819663      -30.5850002988        6.2311797260  MEMB      97              0.0000000000
     12037        97  DOPE      C214           38.6135052159      -30.7200140910        4.4709966994  MEMB      97              0.0000000000
     12038        97  DOPE      H14R           38.2370525644      -29.7215743647        4.1616064743  MEMB      97              0.0000000000
     12039        97  DOPE      H14S           37.9118755327      -31.5306882380        4.1797161342  MEMB      97              0.0000000000
     12040        97  DOPE      C215           39.9701133278      -31.1682903608        3.8040723428  MEMB      97              0.0000000000
     12041        97  DOPE      H15R           40.2156771787      -32.1189961227        4.3238589629  MEMB      97              0.0000000000
     12042        97  DOPE      H15S           40.7718178875      -30.4489709907        4.0764146350  MEMB      97              0.0000000000
     12043        97  DOPE      C216           39.8049546756      -31.2969578510        2.2721102752  MEMB      97              0.0000000000
     12044        97  DOPE      H16R           39.1065619747      -30.5260786957        1.8818361420  MEMB      97              0.0000000000
     12045        97  DOPE      H16S           39.3636925578      -32.2958055859        2.0673867212  MEMB      97              0.0000000000
     12046        97  DOPE      C217           41.1150534236      -31.1392489625        1.4738693325  MEMB      97              0.0000000000
     12047        97  DOPE      H17R           41.6978228551      -32.0349880478        1.7777658206  MEMB      97              0.0000000000
     12048        97  DOPE      H17S           41.5955185594      -30.2022450432        1.8281267682  MEMB      97              0.0000000000
     12049        97  DOPE      C218           40.8708303746      -30.9264698910       -0.0231120222  MEMB      97              0.0000000000
     12050        97  DOPE      H18R           41.7859903343      -31.3148294165       -0.5190758261  MEMB      97              0.0000000000
     12051        97  DOPE      H18S           40.6643664420      -29.8727321699       -0.3082958296  MEMB      97              0.0000000000
     12052        97  DOPE      H18T           40.0402281204      -31.5752136935       -0.3746122983  MEMB      97              0.0000000000
     12053        97  DOPE      C33            33.0069753099      -29.7479780960       13.5329466470  MEMB      97              0.0000000000
     12054        97  DOPE      H3X            32.2205914255      -29.0071772672       13.7920522027  MEMB      97              0.0000000000
     12055        97  DOPE      H3Y            32.4333732713      -30.6976255777       13.4740284623  MEMB      97              0.0000000000
     12056        97  DOPE      C34            33.4555952948      -29.4990622508       12.0351402685  MEMB      97              0.0000000000
     12057        97  DOPE      H4X            33.7974076158      -28.4419594552       12.0307907004  MEMB      97              0.0000000000
     12058        97  DOPE      H4Y            34.1551620337      -30.3044926509       11.7249643443  MEMB      97              0.0000000000
     12059        97  DOPE      C35            32.3314179048      -29.5609938552       10.9726084898  MEMB      97              0.0000000000
     12060        97  DOPE      H5X            31.4364808605      -29.1004896185       11.4430808691  MEMB      97              0.0000000000
     12061        97  DOPE      H5Y            32.0464772922      -30.6144627234       10.7644425760  MEMB      97              0.0000000000
     12062        97  DOPE      C36            32.5457830858      -29.0646891297        9.5727927987  MEMB      97              0.0000000000
     12063        97  DOPE      H6X            32.9366947617      -28.0278241624        9.6529187158  MEMB      97              0.0000000000
     12064        97  DOPE      H6Y            31.6012129417      -29.1053585857        8.9893083890  MEMB      97              0.0000000000
     12065        97  DOPE      C37            33.5204688662      -29.8894636044        8.7821215057  MEMB      97              0.0000000000
     12066        97  DOPE      H7X            34.2918102501      -30.3410938666        9.4419571722  MEMB      97              0.0000000000
     12067        97  DOPE      H7Y            32.8296082465      -30.6186853668        8.3074970056  MEMB      97              0.0000000000
     12068        97  DOPE      C38            34.2159087975      -29.0501681702        7.6945657067  MEMB      97              0.0000000000
     12069        97  DOPE      H8X            34.8431841525      -29.7027463256        7.0503702911  MEMB      97              0.0000000000
     12070        97  DOPE      H8Y            34.8891205178      -28.3313492987        8.2087706525  MEMB      97              0.0000000000
     12071        97  DOPE      C39            33.3671689641      -28.0879823772        6.8639251913  MEMB      97              0.0000000000
     12072        97  DOPE      H9X            33.1540886213      -27.0849771778        7.2621437838  MEMB      97              0.0000000000
     12073        97  DOPE      C310           33.0101883008      -28.3764721535        5.5669043040  MEMB      97              0.0000000000
     12074        97  DOPE      H10X           32.4854618083      -27.5998587415        4.9911146986  MEMB      97              0.0000000000
     12075        97  DOPE      C311           33.3253953213      -29.5392006597        4.6170808175  MEMB      97              0.0000000000
     12076        97  DOPE      H11X           33.9758884167      -30.2925745390        5.1106474904  MEMB      97              0.0000000000
     12077        97  DOPE      H11Y           32.3909076136      -30.1032611188        4.4099831831  MEMB      97              0.0000000000
     12078        97  DOPE      C312           33.9183481955      -29.1128453099        3.2417936691  MEMB      97              0.0000000000
     12079        97  DOPE      H12X           33.1096878918      -28.6714936319        2.6208278156  MEMB      97              0.0000000000
     12080        97  DOPE      H12Y           34.3197867513      -30.0391421813        2.7779588641  MEMB      97              0.0000000000
     12081        97  DOPE      C313           35.1696040358      -28.1899253777        3.4169485898  MEMB      97              0.0000000000
     12082        97  DOPE      H13X           35.0595589063      -27.0918212882        3.5449273714  MEMB      97              0.0000000000
     12083        97  DOPE      H13Y           35.6114098875      -28.5514650322        4.3700578369  MEMB      97              0.0000000000
     12084        97  DOPE      C314           36.1700593966      -28.4101321519        2.2598413959  MEMB      97              0.0000000000
     12085        97  DOPE      H14X           36.5091461599      -29.4673146037        2.2185314706  MEMB      97              0.0000000000
     12086        97  DOPE      H14Y           36.9112704229      -27.6184789397        2.5011135074  MEMB      97              0.0000000000
     12087        97  DOPE      C315           35.6200547462      -28.1524444451        0.7945935656  MEMB      97              0.0000000000
     12088        97  DOPE      H15X           34.8026765236      -28.8913356258        0.6522779265  MEMB      97              0.0000000000
     12089        97  DOPE      H15Y           36.3869750516      -28.5295543924        0.0847031872  MEMB      97              0.0000000000
     12090        97  DOPE      C316           35.2057314155      -26.6792066775        0.3307590203  MEMB      97              0.0000000000
     12091        97  DOPE      H16X           34.6000642850      -26.3539230694        1.2035001103  MEMB      97              0.0000000000
     12092        97  DOPE      H16Y           34.4449720030      -26.6626232170       -0.4787413665  MEMB      97              0.0000000000
     12093        97  DOPE      C317           36.4554727647      -25.7834178635        0.0221101684  MEMB      97              0.0000000000
     12094        97  DOPE      H17X           37.1439513596      -25.8602256220        0.8906828816  MEMB      97              0.0000000000
     12095        97  DOPE      H17Y           37.0163250963      -26.1148480336       -0.8778450117  MEMB      97              0.0000000000
     12096        97  DOPE      C318           35.9860697073      -24.2929979663       -0.0480254900  MEMB      97              0.0000000000
     12097        97  DOPE      H18X           35.4262749003      -24.0765806128       -0.9829673109  MEMB      97              0.0000000000
     12098        97  DOPE      H18Y           35.3621175084      -23.9846993066        0.8179732147  MEMB      97              0.0000000000
     12099        97  DOPE      H18Z           36.9746674802      -23.7931152796        0.0363149179  MEMB      97              0.0000000000
     12100        98  23SM      N             -32.4278796421      -33.2793290332       27.3479576391  MEMB      98              0.0000000000
     12101        98  23SM      C15           -31.3964943916      -32.8720857470       28.4176456722  MEMB      98              0.0000000000
     12102        98  23SM      H15A          -30.8683182129      -33.7533998199       28.7503845170  MEMB      98              0.0000000000
     12103        98  23SM      H15B          -31.9433882537      -32.3491932739       29.1882887431  MEMB      98              0.0000000000
     12104        98  23SM      H15C          -30.7303331600      -32.1060863594       28.0490349030  MEMB      98              0.0000000000
     12105        98  23SM      C14           -31.6536034174      -34.0136027110       26.2761496246  MEMB      98              0.0000000000
     12106        98  23SM      H14A          -30.9132836479      -33.3097656477       25.9255214078  MEMB      98              0.0000000000
     12107        98  23SM      H14B          -32.3359031986      -34.2179751485       25.4643005851  MEMB      98              0.0000000000
     12108        98  23SM      H14C          -31.1538705947      -34.9122229604       26.6065265656  MEMB      98              0.0000000000
     12109        98  23SM      C13           -33.4589586215      -34.1612072899       28.0344860729  MEMB      98              0.0000000000
     12110        98  23SM      H13A          -33.0858765441      -35.1634929075       28.1849295340  MEMB      98              0.0000000000
     12111        98  23SM      H13B          -34.3216524728      -34.2557537143       27.3916639538  MEMB      98              0.0000000000
     12112        98  23SM      H13C          -33.8279680511      -33.6020244713       28.8815673122  MEMB      98              0.0000000000
     12113        98  23SM      C12           -33.0727591749      -31.9853360034       26.7912177889  MEMB      98              0.0000000000
     12114        98  23SM      H12A          -32.3467263174      -31.3490041423       26.3071125752  MEMB      98              0.0000000000
     12115        98  23SM      H12B          -33.4351975796      -31.3297315469       27.5691775913  MEMB      98              0.0000000000
     12116        98  23SM      C11           -34.3162081414      -32.0534048288       25.8397365343  MEMB      98              0.0000000000
     12117        98  23SM      H11A          -34.3380406599      -31.0575983335       25.3475842360  MEMB      98              0.0000000000
     12118        98  23SM      H11B          -35.2657904720      -32.0681002828       26.4162766552  MEMB      98              0.0000000000
     12119        98  23SM      P             -35.2685809980      -34.2548789831       24.7268830427  MEMB      98              0.0000000000
     12120        98  23SM      O13           -34.4881628525      -35.4701990239       24.3969961462  MEMB      98              0.0000000000
     12121        98  23SM      O14           -36.1218564385      -34.4460959142       25.9024259060  MEMB      98              0.0000000000
     12122        98  23SM      O11           -36.1375695186      -33.8748438063       23.4891462439  MEMB      98              0.0000000000
     12123        98  23SM      O12           -34.2921932054      -32.9539257598       24.7773553101  MEMB      98              0.0000000000
     12124        98  23SM      C1S           -35.6439644743      -33.5317660212       22.2308892493  MEMB      98              0.0000000000
     12125        98  23SM      H1S           -34.7927648271      -32.8192107849       22.2761142390  MEMB      98              0.0000000000
     12126        98  23SM      H1T           -36.4600922839      -33.0405653509       21.6590692487  MEMB      98              0.0000000000
     12127        98  23SM      NF            -33.7891550791      -34.3782868610       20.7178751558  MEMB      98              0.0000000000
     12128        98  23SM      HNF           -33.6791175371      -34.6916397518       19.7778162360  MEMB      98              0.0000000000
     12129        98  23SM      C2S           -35.1032041677      -34.6714597808       21.3054251703  MEMB      98              0.0000000000
     12130        98  23SM      H2S           -34.8990923074      -35.6092539684       21.8650693494  MEMB      98              0.0000000000
     12131        98  23SM      C3S           -36.1325259491      -34.9453663946       20.2406669448  MEMB      98              0.0000000000
     12132        98  23SM      H3S           -36.3913535377      -34.0577029870       19.6247265789  MEMB      98              0.0000000000
     12133        98  23SM      O3            -37.3273272497      -35.4232953823       20.7711431711  MEMB      98              0.0000000000
     12134        98  23SM      HO3           -37.2555564519      -35.6719625573       21.6955961868  MEMB      98              0.0000000000
     12135        98  23SM      C4S           -35.5998229868      -35.9242601531       19.2087549284  MEMB      98              0.0000000000
     12136        98  23SM      H4S           -35.1874347073      -36.9059233689       19.4849311358  MEMB      98              0.0000000000
     12137        98  23SM      C5S           -35.6232736905      -35.6130677363       17.9035647044  MEMB      98              0.0000000000
     12138        98  23SM      H5S           -36.1245758207      -34.6886845617       17.5807461428  MEMB      98              0.0000000000
     12139        98  23SM      C6S           -35.1450241467      -36.4403706082       16.7597978807  MEMB      98              0.0000000000
     12140        98  23SM      H6S           -35.9624865626      -36.9131142065       16.1744863327  MEMB      98              0.0000000000
     12141        98  23SM      H6T           -34.5893295941      -37.3057773365       17.1800302792  MEMB      98              0.0000000000
     12142        98  23SM      C7S           -34.2770772168      -35.7063901852       15.6641862849  MEMB      98              0.0000000000
     12143        98  23SM      H7S           -33.3278516228      -35.2206187500       15.9761452273  MEMB      98              0.0000000000
     12144        98  23SM      H7T           -34.8530079689      -34.8324383650       15.2915842610  MEMB      98              0.0000000000
     12145        98  23SM      C8S           -33.9441480294      -36.6529343126       14.3688671187  MEMB      98              0.0000000000
     12146        98  23SM      H8S           -34.8731076934      -37.2621897981       14.3816132540  MEMB      98              0.0000000000
     12147        98  23SM      H8T           -33.1278483406      -37.3456357173       14.6657512817  MEMB      98              0.0000000000
     12148        98  23SM      C9S           -33.8599381637      -35.9217794684       13.0721348078  MEMB      98              0.0000000000
     12149        98  23SM      H9S           -33.2072783683      -35.0284120687       13.1733815383  MEMB      98              0.0000000000
     12150        98  23SM      H9T           -34.8639483092      -35.6367791321       12.6912677468  MEMB      98              0.0000000000
     12151        98  23SM      C10S          -33.0529685325      -36.7169130795       12.0370647119  MEMB      98              0.0000000000
     12152        98  23SM      H10S          -33.2251255021      -37.8141501482       12.0645164862  MEMB      98              0.0000000000
     12153        98  23SM      H10T          -32.0064327429      -36.6390727973       12.4017902494  MEMB      98              0.0000000000
     12154        98  23SM      C11S          -33.3092517928      -36.3225610897       10.5598196445  MEMB      98              0.0000000000
     12155        98  23SM      H11S          -33.1321172650      -35.2296393769       10.4678057211  MEMB      98              0.0000000000
     12156        98  23SM      H11T          -34.4034893577      -36.4407092834       10.4081420509  MEMB      98              0.0000000000
     12157        98  23SM      C12S          -32.6011790376      -37.2814993798        9.5535973024  MEMB      98              0.0000000000
     12158        98  23SM      H12S          -32.3735375768      -38.1599426995       10.1945628667  MEMB      98              0.0000000000
     12159        98  23SM      H12T          -31.6469242079      -36.8851655503        9.1453834493  MEMB      98              0.0000000000
     12160        98  23SM      C13S          -33.4322954095      -37.8079276637        8.4457550992  MEMB      98              0.0000000000
     12161        98  23SM      H13S          -34.4263462802      -38.1117727783        8.8380081809  MEMB      98              0.0000000000
     12162        98  23SM      H13T          -32.8591540628      -38.6886087333        8.0848798990  MEMB      98              0.0000000000
     12163        98  23SM      C14S          -33.6838648148      -36.7715780227        7.3962361667  MEMB      98              0.0000000000
     12164        98  23SM      H14S          -32.9116147792      -35.9769193203        7.4766621654  MEMB      98              0.0000000000
     12165        98  23SM      H14T          -34.6883910096      -36.3253831242        7.5579708622  MEMB      98              0.0000000000
     12166        98  23SM      C15S          -33.5701011103      -37.3730794094        5.8533949574  MEMB      98              0.0000000000
     12167        98  23SM      H15S          -34.3739522790      -38.1378452638        5.7961440955  MEMB      98              0.0000000000
     12168        98  23SM      H15T          -32.6159876730      -37.9286892797        5.7297562387  MEMB      98              0.0000000000
     12169        98  23SM      C16S          -33.6122939338      -36.4132757813        4.6994766475  MEMB      98              0.0000000000
     12170        98  23SM      H16S          -32.7346635767      -35.7381032881        4.7901850160  MEMB      98              0.0000000000
     12171        98  23SM      H16T          -34.4649779054      -35.7024738692        4.7443271349  MEMB      98              0.0000000000
     12172        98  23SM      C17S          -33.7401746256      -37.1802700046        3.3319925207  MEMB      98              0.0000000000
     12173        98  23SM      H17S          -34.5456797969      -37.9417467657        3.4070634337  MEMB      98              0.0000000000
     12174        98  23SM      H17T          -32.7729188306      -37.6839329157        3.1197166067  MEMB      98              0.0000000000
     12175        98  23SM      C18S          -34.0281451098      -36.3320352340        2.1081028416  MEMB      98              0.0000000000
     12176        98  23SM      H18S          -34.0823226102      -36.9162841325        1.1646838956  MEMB      98              0.0000000000
     12177        98  23SM      H18T          -33.1881376222      -35.6052955793        2.0844806190  MEMB      98              0.0000000000
     12178        98  23SM      H18U          -34.9710513324      -35.7508298051        2.1944118887  MEMB      98              0.0000000000
     12179        98  23SM      C1F           -32.6985446318      -33.9851885446       21.4982869751  MEMB      98              0.0000000000
     12180        98  23SM      OF            -32.6954591363      -33.9788071331       22.6782776489  MEMB      98              0.0000000000
     12181        98  23SM      C2F           -31.4054195528      -33.7353281107       20.7603857053  MEMB      98              0.0000000000
     12182        98  23SM      H2F           -31.5468817509      -34.0189995801       19.6955662708  MEMB      98              0.0000000000
     12183        98  23SM      H2G           -30.5737358549      -34.3794714671       21.1177409672  MEMB      98              0.0000000000
     12184        98  23SM      C3F           -30.8983142812      -32.2886370979       21.0072845006  MEMB      98              0.0000000000
     12185        98  23SM      H3F           -30.0327949543      -32.0783883311       20.3432115307  MEMB      98              0.0000000000
     12186        98  23SM      H3G           -30.6458260453      -31.9763845170       22.0431750637  MEMB      98              0.0000000000
     12187        98  23SM      C4F           -31.8840535901      -31.0822002116       20.6821820309  MEMB      98              0.0000000000
     12188        98  23SM      H4F           -31.2251695378      -30.1901980288       20.6149147419  MEMB      98              0.0000000000
     12189        98  23SM      H4G           -32.4859274238      -30.8749226405       21.5927341363  MEMB      98              0.0000000000
     12190        98  23SM      C5F           -32.7047193623      -31.1993430527       19.4467098281  MEMB      98              0.0000000000
     12191        98  23SM      H5F           -33.2955747058      -30.2584996930       19.4516640748  MEMB      98              0.0000000000
     12192        98  23SM      H5G           -33.4843741958      -31.9774955381       19.5914101462  MEMB      98              0.0000000000
     12193        98  23SM      C6F           -32.0761566470      -31.5298023854       18.0675169626  MEMB      98              0.0000000000
     12194        98  23SM      H6F           -31.6744443552      -32.5623288604       17.9848283754  MEMB      98              0.0000000000
     12195        98  23SM      H6G           -31.1414536394      -30.9300136204       18.0975987911  MEMB      98              0.0000000000
     12196        98  23SM      C7F           -32.9511852819      -31.1546708093       16.8376570909  MEMB      98              0.0000000000
     12197        98  23SM      H7F           -32.3198908142      -30.7963514864       15.9965892364  MEMB      98              0.0000000000
     12198        98  23SM      H7G           -33.5761633235      -30.2794196652       17.1163307714  MEMB      98              0.0000000000
     12199        98  23SM      C8F           -33.8902815089      -32.3043270046       16.3157233975  MEMB      98              0.0000000000
     12200        98  23SM      H8F           -34.4834026652      -32.6518226270       17.1885216008  MEMB      98              0.0000000000
     12201        98  23SM      H8G           -33.1954216157      -33.0645428288       15.8991149937  MEMB      98              0.0000000000
     12202        98  23SM      C9F           -34.8041387083      -31.8996722334       15.1479947783  MEMB      98              0.0000000000
     12203        98  23SM      H9F           -35.4723869728      -31.0539971977       15.4174366239  MEMB      98              0.0000000000
     12204        98  23SM      H9G           -35.5038757426      -32.7613583079       15.1012374369  MEMB      98              0.0000000000
     12205        98  23SM      C10F          -34.1024177951      -31.7383904431       13.7581463209  MEMB      98              0.0000000000
     12206        98  23SM      H10F          -33.5941832903      -32.6710052223       13.4321891216  MEMB      98              0.0000000000
     12207        98  23SM      H10G          -33.3389644753      -30.9337501241       13.8215014223  MEMB      98              0.0000000000
     12208        98  23SM      C11F          -35.1346514796      -31.2257510755       12.6837302449  MEMB      98              0.0000000000
     12209        98  23SM      H11F          -35.8406770453      -30.4235776227       12.9876484491  MEMB      98              0.0000000000
     12210        98  23SM      H11G          -35.8095999217      -32.0674246966       12.4184924460  MEMB      98              0.0000000000
     12211        98  23SM      C12F          -34.4658353975      -30.7898924808       11.3582544153  MEMB      98              0.0000000000
     12212        98  23SM      H12F          -33.5313936178      -30.2010552023       11.4782962061  MEMB      98              0.0000000000
     12213        98  23SM      H12G          -35.1877683314      -30.1620065480       10.7935477961  MEMB      98              0.0000000000
     12214        98  23SM      C13F          -34.1188853385      -31.9540008902       10.4102870198  MEMB      98              0.0000000000
     12215        98  23SM      H13F          -34.9745339904      -32.6626311491       10.4157306450  MEMB      98              0.0000000000
     12216        98  23SM      H13G          -33.2385200876      -32.5499706494       10.7329291528  MEMB      98              0.0000000000
     12217        98  23SM      C14F          -33.6931729834      -31.5917734698        8.9818631273  MEMB      98              0.0000000000
     12218        98  23SM      H14F          -33.3481516017      -32.5971518244        8.6586051045  MEMB      98              0.0000000000
     12219        98  23SM      H14G          -32.8253417316      -30.8986897741        8.9531392458  MEMB      98              0.0000000000
     12220        98  23SM      C15F          -34.8779557859      -31.1142414940        8.0897069642  MEMB      98              0.0000000000
     12221        98  23SM      H15F          -35.1396781208      -30.0442118304        8.2341338776  MEMB      98              0.0000000000
     12222        98  23SM      H15G          -35.7781420028      -31.7466590750        8.2447343555  MEMB      98              0.0000000000
     12223        98  23SM      C16F          -34.5108837525      -31.2315642147        6.5655724955  MEMB      98              0.0000000000
     12224        98  23SM      H16F          -34.1610278297      -32.2589425528        6.3280527418  MEMB      98              0.0000000000
     12225        98  23SM      H16G          -33.6272414760      -30.5952746048        6.3450451765  MEMB      98              0.0000000000
     12226        98  23SM      C17F          -35.7162006193      -30.7868784792        5.5979596576  MEMB      98              0.0000000000
     12227        98  23SM      H17F          -35.3956159056      -30.1848914108        4.7209441296  MEMB      98              0.0000000000
     12228        98  23SM      H17G          -36.3776327731      -30.1993012926        6.2699584413  MEMB      98              0.0000000000
     12229        98  23SM      C18F          -36.4323884395      -32.1569230731        5.2767371989  MEMB      98              0.0000000000
     12230        98  23SM      H18F          -36.6197111004      -32.7114917351        6.2210287060  MEMB      98              0.0000000000
     12231        98  23SM      H18G          -35.7393669979      -32.6566896309        4.5666131875  MEMB      98              0.0000000000
     12232        98  23SM      C19F          -37.7675160727      -32.1169025592        4.5460628445  MEMB      98              0.0000000000
     12233        98  23SM      H19F          -37.7484890411      -31.3753216944        3.7190084175  MEMB      98              0.0000000000
     12234        98  23SM      H19G          -38.5656807991      -31.6768012124        5.1813306361  MEMB      98              0.0000000000
     12235        98  23SM      C20F          -38.1905092399      -33.5382797150        4.1344707927  MEMB      98              0.0000000000
     12236        98  23SM      H20F          -39.2807147684      -33.5429957226        3.9205763916  MEMB      98              0.0000000000
     12237        98  23SM      H20G          -38.0642497690      -34.2152175231        5.0063285869  MEMB      98              0.0000000000
     12238        98  23SM      C21F          -37.3955426847      -34.2280810095        3.0328863411  MEMB      98              0.0000000000
     12239        98  23SM      H21F          -37.7368722836      -35.2839938332        2.9793782765  MEMB      98              0.0000000000
     12240        98  23SM      H21G          -36.3278257714      -34.3167669996        3.3268880949  MEMB      98              0.0000000000
     12241        98  23SM      C22F          -37.5164781228      -33.5807343095        1.6353716618  MEMB      98              0.0000000000
     12242        98  23SM      H22F          -37.1671424145      -32.5272180468        1.5864935140  MEMB      98              0.0000000000
     12243        98  23SM      H22G          -38.5935503218      -33.6359799641        1.3685687911  MEMB      98              0.0000000000
     12244        98  23SM      C23F          -36.6134207559      -34.3387373086        0.6508401561  MEMB      98              0.0000000000
     12245        98  23SM      H23F          -35.5450238235      -34.0341647264        0.6600413808  MEMB      98              0.0000000000
     12246        98  23SM      H23G          -37.0990052302      -34.3141101029       -0.3481202095  MEMB      98              0.0000000000
     12247        98  23SM      H23H          -36.7545455615      -35.4167096117        0.8797091849  MEMB      98              0.0000000000
     12248        99  DOPE      N             -31.4068364616       34.8318961149       20.6014735230  MEMB      99              0.0000000000
     12249        99  DOPE      HN1           -30.5040165189       35.2956509243       20.3746525226  MEMB      99              0.0000000000
     12250        99  DOPE      HN2           -31.2602110745       34.2226112097       21.4314572964  MEMB      99              0.0000000000
     12251        99  DOPE      HN3           -31.6354792280       34.1411870325       19.8583426042  MEMB      99              0.0000000000
     12252        99  DOPE      C12           -32.6103449869       35.7142408720       20.9860399371  MEMB      99              0.0000000000
     12253        99  DOPE      H12A          -32.1749526462       36.6323337835       21.4353277534  MEMB      99              0.0000000000
     12254        99  DOPE      H12B          -33.1252562082       35.1779910479       21.8116448888  MEMB      99              0.0000000000
     12255        99  DOPE      C11           -33.4641660192       35.9220708922       19.7057768516  MEMB      99              0.0000000000
     12256        99  DOPE      H11A          -32.9355178627       36.3028110434       18.8058386335  MEMB      99              0.0000000000
     12257        99  DOPE      H11B          -34.2666066691       36.6581963308       19.9260705589  MEMB      99              0.0000000000
     12258        99  DOPE      P             -34.5761568582       34.2235821211       18.1025855853  MEMB      99              0.0000000000
     12259        99  DOPE      O13           -35.1164711897       32.8169742961       18.2652343365  MEMB      99              0.0000000000
     12260        99  DOPE      O14           -33.3749996947       34.3610944530       17.2161932134  MEMB      99              0.0000000000
     12261        99  DOPE      O11           -35.7278894373       35.1953418582       17.5783879259  MEMB      99              0.0000000000
     12262        99  DOPE      O12           -34.0910678821       34.6399959995       19.5443086255  MEMB      99              0.0000000000
     12263        99  DOPE      C1            -36.9542039992       35.2313272512       18.1778519953  MEMB      99              0.0000000000
     12264        99  DOPE      HA            -36.8916341948       35.7337949573       19.1667565145  MEMB      99              0.0000000000
     12265        99  DOPE      HB            -37.2570188553       34.1657639538       18.2626990162  MEMB      99              0.0000000000
     12266        99  DOPE      C2            -37.9589686983       35.9501627924       17.2331384677  MEMB      99              0.0000000000
     12267        99  DOPE      HS            -39.0105039782       35.8963705154       17.5876815558  MEMB      99              0.0000000000
     12268        99  DOPE      O21           -37.9524071879       35.5317548038       15.8336598764  MEMB      99              0.0000000000
     12269        99  DOPE      C21           -38.7115432206       34.4343784046       15.5904269849  MEMB      99              0.0000000000
     12270        99  DOPE      O22           -39.4424418057       33.8954016583       16.4332684033  MEMB      99              0.0000000000
     12271        99  DOPE      C22           -38.5669654609       34.0605341992       14.1068787104  MEMB      99              0.0000000000
     12272        99  DOPE      H2R           -39.0042728292       34.8823897643       13.5005486776  MEMB      99              0.0000000000
     12273        99  DOPE      H2S           -39.1413925544       33.1264476870       13.9284498774  MEMB      99              0.0000000000
     12274        99  DOPE      C3            -37.7092824931       37.4986285895       17.0851805437  MEMB      99              0.0000000000
     12275        99  DOPE      HX            -38.1466735475       38.0523121403       17.9433437495  MEMB      99              0.0000000000
     12276        99  DOPE      HY            -38.3344541352       37.9159506130       16.2670585628  MEMB      99              0.0000000000
     12277        99  DOPE      O31           -36.3251020544       37.8417033297       16.9467703734  MEMB      99              0.0000000000
     12278        99  DOPE      C31           -35.8043083976       37.8902087412       15.7355185990  MEMB      99              0.0000000000
     12279        99  DOPE      O32           -36.4288240242       38.1443323228       14.7210705928  MEMB      99              0.0000000000
     12280        99  DOPE      C32           -34.3303601998       37.6712426082       15.9000762228  MEMB      99              0.0000000000
     12281        99  DOPE      H2X           -33.9919498654       38.4616316274       16.6036985080  MEMB      99              0.0000000000
     12282        99  DOPE      H2Y           -34.0105000373       36.6861178065       16.3019958859  MEMB      99              0.0000000000
     12283        99  DOPE      C23           -37.1153159900       33.8047618382       13.6559166535  MEMB      99              0.0000000000
     12284        99  DOPE      H3R           -36.7611233677       32.9484166663       14.2687312023  MEMB      99              0.0000000000
     12285        99  DOPE      H3S           -36.5382137944       34.7290085468       13.8728090332  MEMB      99              0.0000000000
     12286        99  DOPE      C24           -36.9728547165       33.4217898246       12.1552397731  MEMB      99              0.0000000000
     12287        99  DOPE      H4R           -37.2512837712       34.3104540304       11.5493729992  MEMB      99              0.0000000000
     12288        99  DOPE      H4S           -37.6942939990       32.6237688515       11.8777345352  MEMB      99              0.0000000000
     12289        99  DOPE      C25           -35.6070917822       32.7785921693       11.8373647361  MEMB      99              0.0000000000
     12290        99  DOPE      H5R           -35.1644771752       32.1495531399       12.6390649084  MEMB      99              0.0000000000
     12291        99  DOPE      H5S           -34.8387446892       33.5545980585       11.6329666590  MEMB      99              0.0000000000
     12292        99  DOPE      C26           -35.5665709932       31.9664537788       10.5423430392  MEMB      99              0.0000000000
     12293        99  DOPE      H6R           -36.1446314112       31.0427115854       10.7588321095  MEMB      99              0.0000000000
     12294        99  DOPE      H6S           -34.5028916588       31.7296156050       10.3259751419  MEMB      99              0.0000000000
     12295        99  DOPE      C27           -36.3092702570       32.5873178771        9.4244366630  MEMB      99              0.0000000000
     12296        99  DOPE      H7R           -36.0886797794       33.6761984390        9.4248643962  MEMB      99              0.0000000000
     12297        99  DOPE      H7S           -37.3890207971       32.6487350840        9.6787747113  MEMB      99              0.0000000000
     12298        99  DOPE      C28           -36.0973369928       32.0334291238        7.9893968951  MEMB      99              0.0000000000
     12299        99  DOPE      H8R           -35.0714008494       32.3035075599        7.6594975948  MEMB      99              0.0000000000
     12300        99  DOPE      H8S           -36.7766836276       32.6115486851        7.3271385183  MEMB      99              0.0000000000
     12301        99  DOPE      C29           -36.3972632201       30.5795490092        7.8869961973  MEMB      99              0.0000000000
     12302        99  DOPE      H9R           -36.8759920288       29.9107816255        8.6174539544  MEMB      99              0.0000000000
     12303        99  DOPE      C210          -35.8782682093       29.8496422294        6.8026703523  MEMB      99              0.0000000000
     12304        99  DOPE      H10R          -35.9776604291       28.7544393676        6.8282043375  MEMB      99              0.0000000000
     12305        99  DOPE      C211          -35.0469725548       30.3288309132        5.6584901803  MEMB      99              0.0000000000
     12306        99  DOPE      H11R          -35.0817961940       31.4372672263        5.5915775063  MEMB      99              0.0000000000
     12307        99  DOPE      H11S          -35.3838692846       29.8833920550        4.6980700233  MEMB      99              0.0000000000
     12308        99  DOPE      C212          -33.5086358907       29.9240364168        5.7403945393  MEMB      99              0.0000000000
     12309        99  DOPE      H12R          -33.3776636589       28.8600855499        6.0322437335  MEMB      99              0.0000000000
     12310        99  DOPE      H12S          -32.9167432764       30.3731507974        6.5663973067  MEMB      99              0.0000000000
     12311        99  DOPE      C213          -32.7029567528       30.1256963172        4.4350333930  MEMB      99              0.0000000000
     12312        99  DOPE      H13R          -33.1857289417       29.4264202076        3.7193069320  MEMB      99              0.0000000000
     12313        99  DOPE      H13S          -31.6480323253       29.8198267060        4.6020643444  MEMB      99              0.0000000000
     12314        99  DOPE      C214          -32.5029546583       31.5890103756        3.9938094567  MEMB      99              0.0000000000
     12315        99  DOPE      H14R          -31.4313736904       31.6531152863        3.7075824546  MEMB      99              0.0000000000
     12316        99  DOPE      H14S          -32.6088507058       32.1987683301        4.9164702686  MEMB      99              0.0000000000
     12317        99  DOPE      C215          -33.3666555156       32.1164042219        2.8955005843  MEMB      99              0.0000000000
     12318        99  DOPE      H15R          -33.0226309526       33.1429179515        2.6460260537  MEMB      99              0.0000000000
     12319        99  DOPE      H15S          -34.4372308088       32.2177248926        3.1746482883  MEMB      99              0.0000000000
     12320        99  DOPE      C216          -33.2660511501       31.2935996884        1.5843904870  MEMB      99              0.0000000000
     12321        99  DOPE      H16R          -34.0793993119       31.5890938716        0.8876348891  MEMB      99              0.0000000000
     12322        99  DOPE      H16S          -33.4775493063       30.2642959653        1.9451161278  MEMB      99              0.0000000000
     12323        99  DOPE      C217          -31.9087654527       31.2739761421        0.8780814751  MEMB      99              0.0000000000
     12324        99  DOPE      H17R          -31.1802584475       30.7603748484        1.5412658960  MEMB      99              0.0000000000
     12325        99  DOPE      H17S          -31.5774387440       32.3293672795        0.7746728874  MEMB      99              0.0000000000
     12326        99  DOPE      C218          -31.8138475918       30.4728521074       -0.4025818551  MEMB      99              0.0000000000
     12327        99  DOPE      H18R          -32.2304666655       29.4683709694       -0.1750579374  MEMB      99              0.0000000000
     12328        99  DOPE      H18S          -30.8152861012       30.6038637943       -0.8716571822  MEMB      99              0.0000000000
     12329        99  DOPE      H18T          -32.4991736955       30.8717301091       -1.1807503275  MEMB      99              0.0000000000
     12330        99  DOPE      C33           -33.6711058925       38.0242507038       14.5233455663  MEMB      99              0.0000000000
     12331        99  DOPE      H3X           -32.6960990966       38.4473574318       14.8468631433  MEMB      99              0.0000000000
     12332        99  DOPE      H3Y           -34.2418838402       38.7741852786       13.9350158176  MEMB      99              0.0000000000
     12333        99  DOPE      C34           -33.2529415127       36.7435394332       13.6614741041  MEMB      99              0.0000000000
     12334        99  DOPE      H4X           -32.4833647811       36.2828558319       14.3170985951  MEMB      99              0.0000000000
     12335        99  DOPE      H4Y           -34.1126632231       36.0562738395       13.5102608106  MEMB      99              0.0000000000
     12336        99  DOPE      C35           -32.7738365807       37.1048078011       12.2460103878  MEMB      99              0.0000000000
     12337        99  DOPE      H5X           -32.5840659794       38.1951640577       12.3431291561  MEMB      99              0.0000000000
     12338        99  DOPE      H5Y           -33.6310891047       36.9638917192       11.5534920994  MEMB      99              0.0000000000
     12339        99  DOPE      C36           -31.6192936390       36.3151587298       11.7026288397  MEMB      99              0.0000000000
     12340        99  DOPE      H6X           -30.7702103221       36.3102050844       12.4191159381  MEMB      99              0.0000000000
     12341        99  DOPE      H6Y           -31.3008466527       36.8411102071       10.7772707221  MEMB      99              0.0000000000
     12342        99  DOPE      C37           -31.9593114804       34.8778389570       11.2586933491  MEMB      99              0.0000000000
     12343        99  DOPE      H7X           -31.0005707463       34.3585218045       11.0455104963  MEMB      99              0.0000000000
     12344        99  DOPE      H7Y           -32.4864007210       34.3514575354       12.0829629727  MEMB      99              0.0000000000
     12345        99  DOPE      C38           -32.8918743320       34.6301746068       10.1408879366  MEMB      99              0.0000000000
     12346        99  DOPE      H8X           -33.9748280830       34.8343570348       10.2817485844  MEMB      99              0.0000000000
     12347        99  DOPE      H8Y           -32.9059005709       33.5612313048        9.8384245802  MEMB      99              0.0000000000
     12348        99  DOPE      C39           -32.2896165365       35.2476939413        8.8566922321  MEMB      99              0.0000000000
     12349        99  DOPE      H9X           -31.3666995620       34.7496495117        8.5247646620  MEMB      99              0.0000000000
     12350        99  DOPE      C310          -32.6851187959       36.4033478981        8.2712121020  MEMB      99              0.0000000000
     12351        99  DOPE      H10X          -32.1101101862       36.7631086991        7.4052229749  MEMB      99              0.0000000000
     12352        99  DOPE      C311          -33.8330196511       37.3155302298        8.7457222475  MEMB      99              0.0000000000
     12353        99  DOPE      H11X          -34.4396217946       36.9714180972        9.6105586618  MEMB      99              0.0000000000
     12354        99  DOPE      H11Y          -33.4687442837       38.3409824494        8.9694909439  MEMB      99              0.0000000000
     12355        99  DOPE      C312          -35.0004555152       37.3387879571        7.7388509472  MEMB      99              0.0000000000
     12356        99  DOPE      H12X          -34.6969111382       37.6342742107        6.7117824625  MEMB      99              0.0000000000
     12357        99  DOPE      H12Y          -35.7106972543       38.1217802108        8.0806125237  MEMB      99              0.0000000000
     12358        99  DOPE      C313          -35.8442609230       36.0549550008        7.6954163445  MEMB      99              0.0000000000
     12359        99  DOPE      H13X          -35.1901467456       35.1679763260        7.5549742546  MEMB      99              0.0000000000
     12360        99  DOPE      H13Y          -36.4691205353       35.9406235357        8.6068990233  MEMB      99              0.0000000000
     12361        99  DOPE      C314          -36.9643882748       36.0248181074        6.6354630612  MEMB      99              0.0000000000
     12362        99  DOPE      H14X          -37.6223667320       36.9194008307        6.6687326625  MEMB      99              0.0000000000
     12363        99  DOPE      H14Y          -37.6132396602       35.2473497476        7.0924704896  MEMB      99              0.0000000000
     12364        99  DOPE      C315          -36.5474651555       35.7312776102        5.2423227766  MEMB      99              0.0000000000
     12365        99  DOPE      H15X          -36.1463065340       34.6952340664        5.2449459822  MEMB      99              0.0000000000
     12366        99  DOPE      H15Y          -35.8197808052       36.5251663786        4.9693082014  MEMB      99              0.0000000000
     12367        99  DOPE      C316          -37.7970986929       35.6740236727        4.3015313911  MEMB      99              0.0000000000
     12368        99  DOPE      H16X          -38.3050634866       36.6589963789        4.2232903117  MEMB      99              0.0000000000
     12369        99  DOPE      H16Y          -38.5305583463       34.9340961189        4.6873623246  MEMB      99              0.0000000000
     12370        99  DOPE      C317          -37.3195243215       35.4040990310        2.8251676865  MEMB      99              0.0000000000
     12371        99  DOPE      H17X          -38.2939151998       35.5164461264        2.3033813152  MEMB      99              0.0000000000
     12372        99  DOPE      H17Y          -36.7230203506       36.2988893083        2.5461436493  MEMB      99              0.0000000000
     12373        99  DOPE      C318          -36.5822820654       34.0920294884        2.5453454193  MEMB      99              0.0000000000
     12374        99  DOPE      H18X          -35.6285431709       34.0637332651        3.1144696090  MEMB      99              0.0000000000
     12375        99  DOPE      H18Y          -37.1921110485       33.2353092790        2.9037587646  MEMB      99              0.0000000000
     12376        99  DOPE      H18Z          -36.4770571705       33.8885839410        1.4582116771  MEMB      99              0.0000000000
     12377       100  CHL1      C3             35.8358755991       37.0625077122       17.3287250000  MEMB      100             0.0000000000
     12378       100  CHL1      H3             34.8786637920       36.5024463030       17.3950350000  MEMB      100             0.0000000000
     12379       100  CHL1      O3             36.1848104132       37.4208200785       18.6712750000  MEMB      100             0.0000000000
     12380       100  CHL1      H3'            35.4576211617       37.8782054704       19.0997450000  MEMB      100             0.0000000000
     12381       100  CHL1      C4             36.8679103213       36.1321827983       16.6706650000  MEMB      100             0.0000000000
     12382       100  CHL1      H4A            37.8637414459       36.6195919810       16.7419550000  MEMB      100             0.0000000000
     12383       100  CHL1      H4B            36.9966081569       35.2240341741       17.2975850000  MEMB      100             0.0000000000
     12384       100  CHL1      C5             36.4498605882       35.7595356847       15.2739250000  MEMB      100             0.0000000000
     12385       100  CHL1      C6             36.1910924476       34.4270641159       14.8318550000  MEMB      100             0.0000000000
     12386       100  CHL1      H6             36.3407480912       33.6441823112       15.5899450000  MEMB      100             0.0000000000
     12387       100  CHL1      C7             35.8341705117       34.0255360500       13.4317150000  MEMB      100             0.0000000000
     12388       100  CHL1      H7A            36.5093030318       33.1526618024       13.3029050000  MEMB      100             0.0000000000
     12389       100  CHL1      H7B            34.7485022533       33.7994170152       13.3645050000  MEMB      100             0.0000000000
     12390       100  CHL1      C8             36.2894725150       35.1567673849       12.4715050000  MEMB      100             0.0000000000
     12391       100  CHL1      H8             37.3914279833       35.2182953844       12.5989350000  MEMB      100             0.0000000000
     12392       100  CHL1      C14            35.7908898557       34.8229700435       11.1058350000  MEMB      100             0.0000000000
     12393       100  CHL1      H14            34.6824330297       34.8248697836       11.1809150000  MEMB      100             0.0000000000
     12394       100  CHL1      C15            36.1818490781       33.4714378290       10.4751350000  MEMB      100             0.0000000000
     12395       100  CHL1      H15A           37.2844149784       33.4105001910       10.5974150000  MEMB      100             0.0000000000
     12396       100  CHL1      H15B           35.7293240513       32.5737719312       10.9481550000  MEMB      100             0.0000000000
     12397       100  CHL1      C16            35.8857689679       33.5814721251        8.9520550000  MEMB      100             0.0000000000
     12398       100  CHL1      H16A           36.8674606724       33.4613187967        8.4459250000  MEMB      100             0.0000000000
     12399       100  CHL1      H16B           35.2508155898       32.8249166828        8.4433350000  MEMB      100             0.0000000000
     12400       100  CHL1      C17            35.4865333709       35.1236075302        8.7423650000  MEMB      100             0.0000000000
     12401       100  CHL1      H17            34.4141493377       35.2769486048        8.9889150000  MEMB      100             0.0000000000
     12402       100  CHL1      C13            36.0591443674       35.8741633100       10.0250250000  MEMB      100             0.0000000000
     12403       100  CHL1      C18            37.5561722876       36.1296251235        9.8810350000  MEMB      100             0.0000000000
     12404       100  CHL1      H18A           38.0804466334       36.3376728858       10.8382050000  MEMB      100             0.0000000000
     12405       100  CHL1      H18B           38.0304023618       35.2182216348        9.4582150000  MEMB      100             0.0000000000
     12406       100  CHL1      H18C           37.7808266022       37.0131557120        9.2460250000  MEMB      100             0.0000000000
     12407       100  CHL1      C12            35.3689639478       37.1811611147       10.4624250000  MEMB      100             0.0000000000
     12408       100  CHL1      H12A           35.5959754941       37.8414842392        9.5982750000  MEMB      100             0.0000000000
     12409       100  CHL1      H12B           34.2671961290       37.0423129465       10.4962850000  MEMB      100             0.0000000000
     12410       100  CHL1      C11            35.8743735167       37.6076126185       11.8158150000  MEMB      100             0.0000000000
     12411       100  CHL1      H11A           36.9679517878       37.7807849867       11.7240150000  MEMB      100             0.0000000000
     12412       100  CHL1      H11B           35.2763674631       38.5030315832       12.0895450000  MEMB      100             0.0000000000
     12413       100  CHL1      C9             35.7431184822       36.5002961114       12.9023950000  MEMB      100             0.0000000000
     12414       100  CHL1      H9             34.6743253353       36.3407833669       13.1603950000  MEMB      100             0.0000000000
     12415       100  CHL1      C10            36.2528910556       36.9337460429       14.3193150000  MEMB      100             0.0000000000
     12416       100  CHL1      C19            37.7342526213       37.5159926506       14.2033550000  MEMB      100             0.0000000000
     12417       100  CHL1      H19A           37.6349858411       38.4519411575       13.6130450000  MEMB      100             0.0000000000
     12418       100  CHL1      H19B           38.1100049916       37.8570314915       15.1916950000  MEMB      100             0.0000000000
     12419       100  CHL1      H19C           38.4321918301       36.7656947504       13.7741050000  MEMB      100             0.0000000000
     12420       100  CHL1      C1             35.2948982496       37.9814390442       14.9769050000  MEMB      100             0.0000000000
     12421       100  CHL1      H1A            35.2106189319       38.9331348355       14.4099150000  MEMB      100             0.0000000000
     12422       100  CHL1      H1B            34.2940180354       37.4998255491       15.0014650000  MEMB      100             0.0000000000
     12423       100  CHL1      C2             35.6297684138       38.2842948021       16.4532950000  MEMB      100             0.0000000000
     12424       100  CHL1      H2A            34.8999310144       38.9662156518       16.9397450000  MEMB      100             0.0000000000
     12425       100  CHL1      H2B            36.6063013970       38.8136686787       16.4747250000  MEMB      100             0.0000000000
     12426       100  CHL1      C20            35.7712813424       35.6162352770        7.3295750000  MEMB      100             0.0000000000
     12427       100  CHL1      H20            36.8240468609       35.2798548435        7.2161750000  MEMB      100             0.0000000000
     12428       100  CHL1      C21            35.7485773897       37.1967270280        7.1052650000  MEMB      100             0.0000000000
     12429       100  CHL1      H21A           35.8854088128       37.4948877359        6.0438050000  MEMB      100             0.0000000000
     12430       100  CHL1      H21B           36.4891079162       37.6760504768        7.7806850000  MEMB      100             0.0000000000
     12431       100  CHL1      H21C           34.7248941318       37.4946501330        7.4177150000  MEMB      100             0.0000000000
     12432       100  CHL1      C22            34.7869964177       34.9411206171        6.3759250000  MEMB      100             0.0000000000
     12433       100  CHL1      H22A           34.0937448151       34.3467210415        7.0087050000  MEMB      100             0.0000000000
     12434       100  CHL1      H22B           34.1069098279       35.6422347192        5.8465650000  MEMB      100             0.0000000000
     12435       100  CHL1      C23            35.3928210744       33.9892281679        5.3432350000  MEMB      100             0.0000000000
     12436       100  CHL1      H23A           36.0164123323       33.1814976751        5.7825950000  MEMB      100             0.0000000000
     12437       100  CHL1      H23B           34.5461346492       33.5116931452        4.8052850000  MEMB      100             0.0000000000
     12438       100  CHL1      C24            36.3684504848       34.5838498127        4.3473050000  MEMB      100             0.0000000000
     12439       100  CHL1      H24A           35.8467971177       35.1656493627        3.5575450000  MEMB      100             0.0000000000
     12440       100  CHL1      H24B           37.0661553107       35.2991286479        4.8329950000  MEMB      100             0.0000000000
     12441       100  CHL1      C25            37.1070731634       33.5360814756        3.4141550000  MEMB      100             0.0000000000
     12442       100  CHL1      H25            36.3269252839       33.1670574567        2.7145050000  MEMB      100             0.0000000000
     12443       100  CHL1      C26            38.2335522364       34.1730519798        2.5734050000  MEMB      100             0.0000000000
     12444       100  CHL1      H26A           38.9416061904       34.5881527944        3.3221950000  MEMB      100             0.0000000000
     12445       100  CHL1      H26B           38.6650243160       33.3957893234        1.9070650000  MEMB      100             0.0000000000
     12446       100  CHL1      H26C           37.9814788946       35.0191639126        1.8989650000  MEMB      100             0.0000000000
     12447       100  CHL1      C27            37.7452868949       32.2128069718        3.9010450000  MEMB      100             0.0000000000
     12448       100  CHL1      H27A           38.5521053332       32.4652588410        4.6218950000  MEMB      100             0.0000000000
     12449       100  CHL1      H27B           36.9029362445       31.6711570050        4.3820750000  MEMB      100             0.0000000000
     12450       100  CHL1      H27C           38.1816200566       31.6141620592        3.0730550000  MEMB      100             0.0000000000
     12451       101  23SM      N              -4.1502623447       -0.4923669527      -27.8828296018  MEMB      101             0.0000000000
     12452       101  23SM      C15            -4.9707917599       -1.7398188738      -27.9779807155  MEMB      101             0.0000000000
     12453       101  23SM      H15A           -4.3987201803       -2.5594669094      -28.3870176240  MEMB      101             0.0000000000
     12454       101  23SM      H15B           -5.8776665720       -1.4633718820      -28.4952379374  MEMB      101             0.0000000000
     12455       101  23SM      H15C           -5.3437180518       -1.9504655909      -26.9865403472  MEMB      101             0.0000000000
     12456       101  23SM      C14            -3.8631280730       -0.1792469965      -29.2951257634  MEMB      101             0.0000000000
     12457       101  23SM      H14A           -3.4097420434        0.7981066659      -29.2201528892  MEMB      101             0.0000000000
     12458       101  23SM      H14B           -4.7603657888       -0.1588313441      -29.8959152629  MEMB      101             0.0000000000
     12459       101  23SM      H14C           -3.1872584588       -0.8546125632      -29.7985954369  MEMB      101             0.0000000000
     12460       101  23SM      C13            -4.9506019881        0.6388139559      -27.2485527631  MEMB      101             0.0000000000
     12461       101  23SM      H13A           -5.8704272504        0.7333232117      -27.8065754895  MEMB      101             0.0000000000
     12462       101  23SM      H13B           -4.3722328567        1.5320884933      -27.4328069190  MEMB      101             0.0000000000
     12463       101  23SM      H13C           -5.0727205288        0.4480359303      -26.1925741020  MEMB      101             0.0000000000
     12464       101  23SM      C12            -2.8927783600       -0.8246901074      -27.1495335250  MEMB      101             0.0000000000
     12465       101  23SM      H12A           -2.2782555976        0.0618854484      -27.0971353691  MEMB      101             0.0000000000
     12466       101  23SM      H12B           -2.3399270967       -1.4785733939      -27.8077069981  MEMB      101             0.0000000000
     12467       101  23SM      C11            -2.9637588526       -1.5385108545      -25.7843543228  MEMB      101             0.0000000000
     12468       101  23SM      H11A           -2.0132088273       -1.7382288593      -25.2450136491  MEMB      101             0.0000000000
     12469       101  23SM      H11B           -3.3219882639       -2.5671316361      -26.0032882787  MEMB      101             0.0000000000
     12470       101  23SM      P              -3.3438575107        0.3563021810      -24.1545656412  MEMB      101             0.0000000000
     12471       101  23SM      O13            -2.2298578850        1.0586934024      -24.8423028211  MEMB      101             0.0000000000
     12472       101  23SM      O14            -4.4814994242        1.2352948538      -23.7832392630  MEMB      101             0.0000000000
     12473       101  23SM      O11            -2.8226276945       -0.4602227269      -22.9111388887  MEMB      101             0.0000000000
     12474       101  23SM      O12            -3.9761923962       -0.8266849834      -24.9703766944  MEMB      101             0.0000000000
     12475       101  23SM      C1S            -3.7015509960       -1.2335579506      -22.1076739062  MEMB      101             0.0000000000
     12476       101  23SM      H1S            -3.7616956543       -2.2646381346      -22.5170362282  MEMB      101             0.0000000000
     12477       101  23SM      H1T            -4.6653694098       -0.6835764009      -22.0538649174  MEMB      101             0.0000000000
     12478       101  23SM      NF             -4.3663088573       -1.9581358909      -19.8920467044  MEMB      101             0.0000000000
     12479       101  23SM      HNF            -4.7125948709       -1.2442917742      -19.2882904193  MEMB      101             0.0000000000
     12480       101  23SM      C2S            -3.3009873707       -1.3196611989      -20.6383078973  MEMB      101             0.0000000000
     12481       101  23SM      H2S            -2.4184481149       -1.9941891506      -20.6169219765  MEMB      101             0.0000000000
     12482       101  23SM      C3S            -2.9637965396        0.0763127851      -20.0035997800  MEMB      101             0.0000000000
     12483       101  23SM      H3S            -3.7551258660        0.8542620887      -20.0575803999  MEMB      101             0.0000000000
     12484       101  23SM      O3             -1.8796636608        0.7082914253      -20.7103247950  MEMB      101             0.0000000000
     12485       101  23SM      HO3            -1.4110647693        0.0430757691      -21.2197390218  MEMB      101             0.0000000000
     12486       101  23SM      C4S            -2.6459484585       -0.1359796081      -18.5480101190  MEMB      101             0.0000000000
     12487       101  23SM      H4S            -3.1644832958        0.5578121335      -17.8699433039  MEMB      101             0.0000000000
     12488       101  23SM      C5S            -1.6557932923       -0.9462192460      -18.0930100057  MEMB      101             0.0000000000
     12489       101  23SM      H5S            -1.0145520583       -1.4813345149      -18.8088737698  MEMB      101             0.0000000000
     12490       101  23SM      C6S            -1.2933578885       -1.1246652758      -16.6355325482  MEMB      101             0.0000000000
     12491       101  23SM      H6S            -0.1987735721       -1.0529129022      -16.4593003470  MEMB      101             0.0000000000
     12492       101  23SM      H6T            -1.6536274506       -2.1312140792      -16.3332313361  MEMB      101             0.0000000000
     12493       101  23SM      C7S            -1.8710913359       -0.1498579248      -15.5988416083  MEMB      101             0.0000000000
     12494       101  23SM      H7S            -2.9797573013       -0.1547222577      -15.5270288042  MEMB      101             0.0000000000
     12495       101  23SM      H7T            -1.4173286492        0.8420438540      -15.8099135645  MEMB      101             0.0000000000
     12496       101  23SM      C8S            -1.5524465996       -0.3484681791      -14.1284552853  MEMB      101             0.0000000000
     12497       101  23SM      H8S            -0.4446252961       -0.3488911348      -14.0444746172  MEMB      101             0.0000000000
     12498       101  23SM      H8T            -1.8767364131       -1.3691148750      -13.8327573636  MEMB      101             0.0000000000
     12499       101  23SM      C9S            -2.0911864190        0.7944874778      -13.2646707691  MEMB      101             0.0000000000
     12500       101  23SM      H9S            -3.1079718838        1.1587913733      -13.5249606279  MEMB      101             0.0000000000
     12501       101  23SM      H9T            -1.5200348153        1.7212725330      -13.4864284499  MEMB      101             0.0000000000
     12502       101  23SM      C10S           -2.0328237768        0.5512875848      -11.7696111043  MEMB      101             0.0000000000
     12503       101  23SM      H10S           -1.7679477822        1.4916479625      -11.2405709120  MEMB      101             0.0000000000
     12504       101  23SM      H10T           -1.1787034029       -0.1336059867      -11.5806131384  MEMB      101             0.0000000000
     12505       101  23SM      C11S           -3.2797808496        0.0387995774      -11.1698324452  MEMB      101             0.0000000000
     12506       101  23SM      H11S           -3.3775877434       -1.0599370712      -11.3022435860  MEMB      101             0.0000000000
     12507       101  23SM      H11T           -4.1605399606        0.5924377538      -11.5597930839  MEMB      101             0.0000000000
     12508       101  23SM      C12S           -3.4465968859        0.2334585938       -9.5863369888  MEMB      101             0.0000000000
     12509       101  23SM      H12S           -4.3118282100       -0.3554197381       -9.2136205465  MEMB      101             0.0000000000
     12510       101  23SM      H12T           -3.6237067370        1.3178998483       -9.4222017396  MEMB      101             0.0000000000
     12511       101  23SM      C13S           -2.2836664347       -0.3888130193       -8.7659838871  MEMB      101             0.0000000000
     12512       101  23SM      H13S           -1.3383682368        0.1502120643       -8.9900009086  MEMB      101             0.0000000000
     12513       101  23SM      H13T           -2.2834801465       -1.3974294089       -9.2318322557  MEMB      101             0.0000000000
     12514       101  23SM      C14S           -2.7335766508       -0.5054779513       -7.2795781196  MEMB      101             0.0000000000
     12515       101  23SM      H14S           -3.6804340680       -1.0796552239       -7.3695927028  MEMB      101             0.0000000000
     12516       101  23SM      H14T           -2.9347347172        0.4741728951       -6.7956972334  MEMB      101             0.0000000000
     12517       101  23SM      C15S           -1.6529787262       -1.2052301203       -6.3680287248  MEMB      101             0.0000000000
     12518       101  23SM      H15S           -0.7677854122       -0.5338533804       -6.3654033893  MEMB      101             0.0000000000
     12519       101  23SM      H15T           -1.3326699826       -2.1224952248       -6.9068682180  MEMB      101             0.0000000000
     12520       101  23SM      C16S           -1.9910698913       -1.6782663758       -4.9631955209  MEMB      101             0.0000000000
     12521       101  23SM      H16S           -1.1180610952       -2.2114469159       -4.5297277086  MEMB      101             0.0000000000
     12522       101  23SM      H16T           -2.7723437247       -2.4657731544       -5.0245568645  MEMB      101             0.0000000000
     12523       101  23SM      C17S           -2.4634544465       -0.5945821127       -3.9740100222  MEMB      101             0.0000000000
     12524       101  23SM      H17S           -3.4015760525       -0.1188396001       -4.3316654999  MEMB      101             0.0000000000
     12525       101  23SM      H17T           -1.6546797653        0.1643610550       -4.0388956154  MEMB      101             0.0000000000
     12526       101  23SM      C18S           -2.7082571286       -1.0433792878       -2.5262400658  MEMB      101             0.0000000000
     12527       101  23SM      H18S           -1.8243014466       -1.4447602627       -1.9860228829  MEMB      101             0.0000000000
     12528       101  23SM      H18T           -3.6327136708       -1.6576597807       -2.4776544499  MEMB      101             0.0000000000
     12529       101  23SM      H18U           -3.0755888259       -0.1408155812       -1.9926048923  MEMB      101             0.0000000000
     12530       101  23SM      C1F            -4.7575244388       -3.2460758941      -20.1451902748  MEMB      101             0.0000000000
     12531       101  23SM      OF             -4.1144141700       -4.0688135692      -20.8171438590  MEMB      101             0.0000000000
     12532       101  23SM      C2F            -6.0980746051       -3.5597176938      -19.5094634563  MEMB      101             0.0000000000
     12533       101  23SM      H2F            -6.8036987613       -4.0865030088      -20.1868938296  MEMB      101             0.0000000000
     12534       101  23SM      H2G            -6.5306052152       -2.5858349330      -19.1951534316  MEMB      101             0.0000000000
     12535       101  23SM      C3F            -6.0514892979       -4.4852334992      -18.2897196540  MEMB      101             0.0000000000
     12536       101  23SM      H3F            -5.8828889202       -5.5402769362      -18.5943146879  MEMB      101             0.0000000000
     12537       101  23SM      H3G            -7.0958183399       -4.5511002636      -17.9164107753  MEMB      101             0.0000000000
     12538       101  23SM      C4F            -5.0969775181       -4.1706553852      -17.1275982603  MEMB      101             0.0000000000
     12539       101  23SM      H4F            -4.0688439478       -3.9101785180      -17.4583763221  MEMB      101             0.0000000000
     12540       101  23SM      H4G            -5.0968309569       -5.1353618737      -16.5765422989  MEMB      101             0.0000000000
     12541       101  23SM      C5F            -5.6512750059       -3.0923119450      -16.2188891480  MEMB      101             0.0000000000
     12542       101  23SM      H5F            -6.6469078148       -3.4366802150      -15.8661184099  MEMB      101             0.0000000000
     12543       101  23SM      H5G            -5.6784895360       -2.1279451895      -16.7698681811  MEMB      101             0.0000000000
     12544       101  23SM      C6F            -4.7833085707       -2.8854107603      -14.9370019695  MEMB      101             0.0000000000
     12545       101  23SM      H6F            -3.7378875206       -2.5484136293      -15.1038810521  MEMB      101             0.0000000000
     12546       101  23SM      H6G            -4.9084278264       -3.8311952860      -14.3676530605  MEMB      101             0.0000000000
     12547       101  23SM      C7F            -5.3516587899       -1.7634236116      -13.9809988889  MEMB      101             0.0000000000
     12548       101  23SM      H7F            -5.2927583361       -0.7813474698      -14.4971171492  MEMB      101             0.0000000000
     12549       101  23SM      H7G            -4.7069054611       -1.6686605695      -13.0812017891  MEMB      101             0.0000000000
     12550       101  23SM      C8F            -6.7257663083       -2.0668645099      -13.3825681876  MEMB      101             0.0000000000
     12551       101  23SM      H8F            -7.4162280257       -2.3470855721      -14.2066194234  MEMB      101             0.0000000000
     12552       101  23SM      H8G            -7.0103478334       -1.1248235603      -12.8669199150  MEMB      101             0.0000000000
     12553       101  23SM      C9F            -6.8232585064       -3.1784972263      -12.2861781627  MEMB      101             0.0000000000
     12554       101  23SM      H9F            -6.3494225269       -4.0735520575      -12.7429896562  MEMB      101             0.0000000000
     12555       101  23SM      H9G            -7.8536953477       -3.4658239698      -11.9862374643  MEMB      101             0.0000000000
     12556       101  23SM      C10F           -6.1368212383       -2.9558197939      -10.9407033196  MEMB      101             0.0000000000
     12557       101  23SM      H10F           -6.5325137334       -2.0207701808      -10.4896710808  MEMB      101             0.0000000000
     12558       101  23SM      H10G           -5.0629357293       -2.7787261539      -11.1637029988  MEMB      101             0.0000000000
     12559       101  23SM      C11F           -6.2103514871       -4.0337373921       -9.8582010307  MEMB      101             0.0000000000
     12560       101  23SM      H11F           -5.3710004949       -4.7339377578      -10.0570232401  MEMB      101             0.0000000000
     12561       101  23SM      H11G           -7.1545969902       -4.6191556937       -9.8607983759  MEMB      101             0.0000000000
     12562       101  23SM      C12F           -6.0279984816       -3.4120661102       -8.4013530503  MEMB      101             0.0000000000
     12563       101  23SM      H12F           -5.1220328259       -2.7690100256       -8.4064570372  MEMB      101             0.0000000000
     12564       101  23SM      H12G           -5.8493572333       -4.2629219097       -7.7096495914  MEMB      101             0.0000000000
     12565       101  23SM      C13F           -7.2450383570       -2.7899711702       -7.7484457621  MEMB      101             0.0000000000
     12566       101  23SM      H13F           -7.9120685643       -3.5711727318       -7.3252230861  MEMB      101             0.0000000000
     12567       101  23SM      H13G           -7.9113245979       -2.2747803569       -8.4729872509  MEMB      101             0.0000000000
     12568       101  23SM      C14F           -6.8671190066       -1.8819069489       -6.5893367747  MEMB      101             0.0000000000
     12569       101  23SM      H14F           -7.7266888776       -1.2378733752       -6.3052931658  MEMB      101             0.0000000000
     12570       101  23SM      H14G           -6.0390902491       -1.2370002548       -6.9537332529  MEMB      101             0.0000000000
     12571       101  23SM      C15F           -6.2654190845       -2.6376605958       -5.3716820208  MEMB      101             0.0000000000
     12572       101  23SM      H15F           -5.2358968468       -2.9498520045       -5.6490657614  MEMB      101             0.0000000000
     12573       101  23SM      H15G           -6.9683309180       -3.4518273254       -5.0935294072  MEMB      101             0.0000000000
     12574       101  23SM      C16F           -6.0989377595       -1.7858422499       -4.0691294900  MEMB      101             0.0000000000
     12575       101  23SM      H16F           -5.4669930267       -0.9134464518       -4.3409603031  MEMB      101             0.0000000000
     12576       101  23SM      H16G           -5.4772278453       -2.3435041692       -3.3364559001  MEMB      101             0.0000000000
     12577       101  23SM      C17F           -7.4182338679       -1.2242204176       -3.5255266157  MEMB      101             0.0000000000
     12578       101  23SM      H17F           -8.0914858237       -2.0877171680       -3.3373080169  MEMB      101             0.0000000000
     12579       101  23SM      H17G           -7.8909924375       -0.5849788491       -4.3015355312  MEMB      101             0.0000000000
     12580       101  23SM      C18F           -7.3028194731       -0.4012170675       -2.2393977098  MEMB      101             0.0000000000
     12581       101  23SM      H18F           -7.0606099915       -1.1192488702       -1.4269406104  MEMB      101             0.0000000000
     12582       101  23SM      H18G           -8.3321774987       -0.0295147116       -2.0481381091  MEMB      101             0.0000000000
     12583       101  23SM      C19F           -6.4267588883        0.8475076858       -2.2916121537  MEMB      101             0.0000000000
     12584       101  23SM      H19F           -6.8900205650        1.5200454874       -3.0448741520  MEMB      101             0.0000000000
     12585       101  23SM      H19G           -5.4348790878        0.5729749068       -2.7100949044  MEMB      101             0.0000000000
     12586       101  23SM      C20F           -6.3846734646        1.6975719343       -1.0591169420  MEMB      101             0.0000000000
     12587       101  23SM      H20F           -5.5940270730        1.2615788722       -0.4117313264  MEMB      101             0.0000000000
     12588       101  23SM      H20G           -7.3626591392        1.6205238596       -0.5376494456  MEMB      101             0.0000000000
     12589       101  23SM      C21F           -6.0224821295        3.2155700175       -1.2483322352  MEMB      101             0.0000000000
     12590       101  23SM      H21F           -6.9831148547        3.6860179037       -1.5486398338  MEMB      101             0.0000000000
     12591       101  23SM      H21G           -5.4098848631        3.3504367647       -2.1653149977  MEMB      101             0.0000000000
     12592       101  23SM      C22F           -5.3038631925        3.9407227271       -0.1188671850  MEMB      101             0.0000000000
     12593       101  23SM      H22F           -4.9431948513        4.9214634718       -0.4962075966  MEMB      101             0.0000000000
     12594       101  23SM      H22G           -4.4202979337        3.3112148163        0.1206180698  MEMB      101             0.0000000000
     12595       101  23SM      C23F           -6.0029165074        4.0491973198        1.2335824853  MEMB      101             0.0000000000
     12596       101  23SM      H23F           -5.5541469784        4.7799649483        1.9399152975  MEMB      101             0.0000000000
     12597       101  23SM      H23G           -6.0722315340        3.0099034626        1.6200839755  MEMB      101             0.0000000000
     12598       101  23SM      H23H           -6.9633647323        4.5306259980        0.9505859692  MEMB      101             0.0000000000
     12599       102  CHL1      C3              4.7236305524       -0.3293931502      -17.3032100000  MEMB      102             0.0000000000
     12600       102  CHL1      H3              4.3426046764        0.7019849583      -17.1438200000  MEMB      102             0.0000000000
     12601       102  CHL1      O3              4.6514149076       -0.5470591098      -18.6967900000  MEMB      102             0.0000000000
     12602       102  CHL1      H3'             5.2489217874        0.0687197968      -19.1273700000  MEMB      102             0.0000000000
     12603       102  CHL1      C4              6.1623282664       -0.4611262771      -16.9093300000  MEMB      102             0.0000000000
     12604       102  CHL1      H4A             6.6970834020       -1.3033954062      -17.3981300000  MEMB      102             0.0000000000
     12605       102  CHL1      H4B             6.5783990429        0.4133721285      -17.4538200000  MEMB      102             0.0000000000
     12606       102  CHL1      C5              6.4026665157       -0.3642618129      -15.4519200000  MEMB      102             0.0000000000
     12607       102  CHL1      C6              7.0720602492        0.6754244428      -14.8495300000  MEMB      102             0.0000000000
     12608       102  CHL1      H6              7.4105039030        1.4644009804      -15.5372600000  MEMB      102             0.0000000000
     12609       102  CHL1      C7              7.1603069052        0.9693345102      -13.3898700000  MEMB      102             0.0000000000
     12610       102  CHL1      H7A             8.1535810359        1.3187602459      -13.0354300000  MEMB      102             0.0000000000
     12611       102  CHL1      H7B             6.5024917924        1.8272613182      -13.1338200000  MEMB      102             0.0000000000
     12612       102  CHL1      C8              6.8069506010       -0.3278160269      -12.5882800000  MEMB      102             0.0000000000
     12613       102  CHL1      H8              7.6449115269       -1.0395182337      -12.7483500000  MEMB      102             0.0000000000
     12614       102  CHL1      C14             6.7278276905       -0.0133249478      -11.0730600000  MEMB      102             0.0000000000
     12615       102  CHL1      H14             5.9464181543        0.7652017374      -10.9403200000  MEMB      102             0.0000000000
     12616       102  CHL1      C15             7.9398480263        0.6969988130      -10.4417000000  MEMB      102             0.0000000000
     12617       102  CHL1      H15A            8.7950796261        0.2438488956      -10.9871800000  MEMB      102             0.0000000000
     12618       102  CHL1      H15B            7.9705192623        1.7508681301      -10.7920600000  MEMB      102             0.0000000000
     12619       102  CHL1      C16             7.7501482718        0.4552696349       -8.9432900000  MEMB      102             0.0000000000
     12620       102  CHL1      H16A            8.7185202255       -0.0003167825       -8.6449100000  MEMB      102             0.0000000000
     12621       102  CHL1      H16B            7.6145665108        1.4070925292       -8.3865400000  MEMB      102             0.0000000000
     12622       102  CHL1      C17             6.5630307165       -0.5673479099       -8.8053700000  MEMB      102             0.0000000000
     12623       102  CHL1      H17             5.6834152312        0.0971079246       -8.6671600000  MEMB      102             0.0000000000
     12624       102  CHL1      C13             6.4235031954       -1.1856629560      -10.1909500000  MEMB      102             0.0000000000
     12625       102  CHL1      C18             7.3628762337       -2.3530090030      -10.1119100000  MEMB      102             0.0000000000
     12626       102  CHL1      H18A            7.0054148338       -3.2963890011       -9.6465500000  MEMB      102             0.0000000000
     12627       102  CHL1      H18B            7.6777386140       -2.5824678124      -11.1523500000  MEMB      102             0.0000000000
     12628       102  CHL1      H18C            8.3574836374       -2.0878978235       -9.6938200000  MEMB      102             0.0000000000
     12629       102  CHL1      C12             4.9661830043       -1.5762398814      -10.5495300000  MEMB      102             0.0000000000
     12630       102  CHL1      H12A            4.5639818092       -2.3274714111       -9.8366500000  MEMB      102             0.0000000000
     12631       102  CHL1      H12B            4.3599641385       -0.6460017506      -10.5880500000  MEMB      102             0.0000000000
     12632       102  CHL1      C11             4.8510098255       -1.9308383238      -12.0491400000  MEMB      102             0.0000000000
     12633       102  CHL1      H11A            5.3915477167       -2.8977919496      -12.1336100000  MEMB      102             0.0000000000
     12634       102  CHL1      H11B            3.7955134086       -2.1501715416      -12.3177500000  MEMB      102             0.0000000000
     12635       102  CHL1      C9              5.5182254242       -0.9179850818      -13.0610400000  MEMB      102             0.0000000000
     12636       102  CHL1      H9              4.6973746108       -0.1696270236      -13.0831800000  MEMB      102             0.0000000000
     12637       102  CHL1      C10             5.5027400498       -1.3484441968      -14.5885400000  MEMB      102             0.0000000000
     12638       102  CHL1      C19             6.1041399545       -2.7798814124      -14.6703500000  MEMB      102             0.0000000000
     12639       102  CHL1      H19A            6.9176456840       -2.9196632327      -13.9267300000  MEMB      102             0.0000000000
     12640       102  CHL1      H19B            5.4123227764       -3.6297946995      -14.4877200000  MEMB      102             0.0000000000
     12641       102  CHL1      H19C            6.5945124074       -3.0643626208      -15.6258200000  MEMB      102             0.0000000000
     12642       102  CHL1      C1              4.0109530714       -1.3827651503      -15.0832300000  MEMB      102             0.0000000000
     12643       102  CHL1      H1A             3.4422578880       -2.2831067757      -14.7665700000  MEMB      102             0.0000000000
     12644       102  CHL1      H1B             3.4062875909       -0.4977534631      -14.7908900000  MEMB      102             0.0000000000
     12645       102  CHL1      C2              3.8609577783       -1.4002240180      -16.6000900000  MEMB      102             0.0000000000
     12646       102  CHL1      H2A             2.8073605875       -1.2557367903      -16.9216200000  MEMB      102             0.0000000000
     12647       102  CHL1      H2B             4.1692850592       -2.3644358532      -17.0578600000  MEMB      102             0.0000000000
     12648       102  CHL1      C20             6.6080941037       -1.3622645227       -7.4640800000  MEMB      102             0.0000000000
     12649       102  CHL1      H20             7.4052117921       -2.1353638739       -7.4993700000  MEMB      102             0.0000000000
     12650       102  CHL1      C21             5.2465967319       -2.1116770821       -7.3197300000  MEMB      102             0.0000000000
     12651       102  CHL1      H21A            5.0177039353       -2.9055254664       -8.0625200000  MEMB      102             0.0000000000
     12652       102  CHL1      H21B            4.4870111656       -1.3021435052       -7.2750400000  MEMB      102             0.0000000000
     12653       102  CHL1      H21C            5.0851662807       -2.5934595395       -6.3317300000  MEMB      102             0.0000000000
     12654       102  CHL1      C22             6.8182742667       -0.3919772644       -6.1934400000  MEMB      102             0.0000000000
     12655       102  CHL1      H22A            7.8299529629        0.0221224132       -6.3918200000  MEMB      102             0.0000000000
     12656       102  CHL1      H22B            6.0187443070        0.3793396874       -6.1814900000  MEMB      102             0.0000000000
     12657       102  CHL1      C23             6.7053209245       -1.1024343547       -4.8236600000  MEMB      102             0.0000000000
     12658       102  CHL1      H23A            5.7184900852       -1.6053035682       -4.7364200000  MEMB      102             0.0000000000
     12659       102  CHL1      H23B            7.4318866134       -1.9287324687       -4.9774800000  MEMB      102             0.0000000000
     12660       102  CHL1      C24             7.3294358667       -0.2470357913       -3.7054200000  MEMB      102             0.0000000000
     12661       102  CHL1      H24A            8.4036771108       -0.0120264052       -3.8638400000  MEMB      102             0.0000000000
     12662       102  CHL1      H24B            6.7045398441        0.6697441704       -3.6476300000  MEMB      102             0.0000000000
     12663       102  CHL1      C25             7.1709502618       -0.8597060647       -2.2791300000  MEMB      102             0.0000000000
     12664       102  CHL1      H25             7.4514520804       -0.0346169595       -1.5900200000  MEMB      102             0.0000000000
     12665       102  CHL1      C26             5.8025460962       -1.3356352209       -2.0101800000  MEMB      102             0.0000000000
     12666       102  CHL1      H26A            5.0432629204       -0.5842112049       -2.3154200000  MEMB      102             0.0000000000
     12667       102  CHL1      H26B            5.6651246966       -2.3543294007       -2.4317300000  MEMB      102             0.0000000000
     12668       102  CHL1      H26C            5.6980004428       -1.6561959915       -0.9515800000  MEMB      102             0.0000000000
     12669       102  CHL1      C27             8.1391966167       -2.0543388518       -2.0689800000  MEMB      102             0.0000000000
     12670       102  CHL1      H27A            7.9149704342       -2.8586253784       -2.8018900000  MEMB      102             0.0000000000
     12671       102  CHL1      H27B            9.1677508774       -1.6730912035       -2.2451800000  MEMB      102             0.0000000000
     12672       102  CHL1      H27C            8.0755843407       -2.3237177202       -0.9930100000  MEMB      102             0.0000000000
     12673       103  23SM      N               1.0253255623        5.0545965783      -27.0498582273  MEMB      103             0.0000000000
     12674       103  23SM      C15            -0.3005890960        5.7193870679      -27.3090026383  MEMB      103             0.0000000000
     12675       103  23SM      H15A           -0.5517858678        5.4478986156      -28.3236917338  MEMB      103             0.0000000000
     12676       103  23SM      H15B           -0.3014791025        6.7993536640      -27.3174453578  MEMB      103             0.0000000000
     12677       103  23SM      H15C           -1.0048812153        5.4081840292      -26.5516880620  MEMB      103             0.0000000000
     12678       103  23SM      C14             0.7695658239        3.5804891721      -27.2479348171  MEMB      103             0.0000000000
     12679       103  23SM      H14A            1.6729583157        3.0118490370      -27.0838301758  MEMB      103             0.0000000000
     12680       103  23SM      H14B            0.3948048956        3.2524242724      -28.2062290360  MEMB      103             0.0000000000
     12681       103  23SM      H14C            0.0140164485        3.2790325667      -26.5375342517  MEMB      103             0.0000000000
     12682       103  23SM      C13             2.0936304010        5.4875881583      -28.0530458514  MEMB      103             0.0000000000
     12683       103  23SM      H13A            1.8331633314        5.3437184484      -29.0912453461  MEMB      103             0.0000000000
     12684       103  23SM      H13B            2.9955986388        4.9662250749      -27.7683815874  MEMB      103             0.0000000000
     12685       103  23SM      H13C            2.2848726088        6.5321127425      -27.8560816769  MEMB      103             0.0000000000
     12686       103  23SM      C12             1.4112939931        5.2679130599      -25.6017206793  MEMB      103             0.0000000000
     12687       103  23SM      H12A            2.2262882038        4.6292118266      -25.2947268351  MEMB      103             0.0000000000
     12688       103  23SM      H12B            0.4808466279        4.9202719495      -25.1776766385  MEMB      103             0.0000000000
     12689       103  23SM      C11             1.8177530909        6.6342580966      -25.0219658370  MEMB      103             0.0000000000
     12690       103  23SM      H11A            2.8710165207        6.8863218421      -25.2697985195  MEMB      103             0.0000000000
     12691       103  23SM      H11B            1.7408624627        6.5302037127      -23.9185251556  MEMB      103             0.0000000000
     12692       103  23SM      P               1.0182938169        9.1762892453      -25.2218653146  MEMB      103             0.0000000000
     12693       103  23SM      O13             2.1990486086        9.6527937466      -25.9374161657  MEMB      103             0.0000000000
     12694       103  23SM      O14            -0.2878408799        9.8264535590      -25.4400434867  MEMB      103             0.0000000000
     12695       103  23SM      O11             1.2966937964        9.2514688551      -23.6155826523  MEMB      103             0.0000000000
     12696       103  23SM      O12             0.9952352228        7.6565793110      -25.5015643334  MEMB      103             0.0000000000
     12697       103  23SM      C1S             0.2610443202        8.8390809089      -22.6807304681  MEMB      103             0.0000000000
     12698       103  23SM      H1S            -0.2668675079        7.9347435460      -23.0519502119  MEMB      103             0.0000000000
     12699       103  23SM      H1T            -0.5592650735        9.5760975931      -22.5457486380  MEMB      103             0.0000000000
     12700       103  23SM      NF             -0.3122879897        8.1435251025      -20.4424510829  MEMB      103             0.0000000000
     12701       103  23SM      HNF            -0.6934413759        8.8258081817      -19.8234025641  MEMB      103             0.0000000000
     12702       103  23SM      C2S             0.8780994641        8.4745545399      -21.2731008205  MEMB      103             0.0000000000
     12703       103  23SM      H2S             1.4793283702        7.5457242603      -21.3736945483  MEMB      103             0.0000000000
     12704       103  23SM      C3S             1.7544354085        9.5321024995      -20.5461087317  MEMB      103             0.0000000000
     12705       103  23SM      H3S             1.1241633107       10.4370741066      -20.6806611686  MEMB      103             0.0000000000
     12706       103  23SM      O3              3.0448299004        9.7247409860      -21.2066446812  MEMB      103             0.0000000000
     12707       103  23SM      HO3             2.9666098996        9.5773844655      -22.1520377090  MEMB      103             0.0000000000
     12708       103  23SM      C4S             1.7927495552        9.2290018665      -19.0660632110  MEMB      103             0.0000000000
     12709       103  23SM      H4S             1.2067997486        9.9707674768      -18.5035272017  MEMB      103             0.0000000000
     12710       103  23SM      C5S             2.6037854061        8.4127390462      -18.3834115992  MEMB      103             0.0000000000
     12711       103  23SM      H5S             3.1781755477        7.7070017348      -19.0014815523  MEMB      103             0.0000000000
     12712       103  23SM      C6S             2.5720704227        8.1192613021      -16.9385282341  MEMB      103             0.0000000000
     12713       103  23SM      H6S             2.2134160338        7.0841980934      -16.7532389703  MEMB      103             0.0000000000
     12714       103  23SM      H6T             1.9607343627        8.8989879245      -16.4359195158  MEMB      103             0.0000000000
     12715       103  23SM      C7S             4.0093710937        8.3122327442      -16.4563091926  MEMB      103             0.0000000000
     12716       103  23SM      H7S             4.3003581692        9.3810393355      -16.5417480284  MEMB      103             0.0000000000
     12717       103  23SM      H7T             4.6420867528        7.7453971384      -17.1723330241  MEMB      103             0.0000000000
     12718       103  23SM      C8S             4.3405398369        8.0571953530      -15.0168879952  MEMB      103             0.0000000000
     12719       103  23SM      H8S             5.4507378633        8.0438185555      -15.0569226130  MEMB      103             0.0000000000
     12720       103  23SM      H8T             3.9516178894        7.1026006365      -14.6023887984  MEMB      103             0.0000000000
     12721       103  23SM      C9S             3.8293632451        9.0572627126      -13.9340861888  MEMB      103             0.0000000000
     12722       103  23SM      H9S             2.7458752008        8.9114086139      -13.7363459325  MEMB      103             0.0000000000
     12723       103  23SM      H9T             4.0904666267       10.0267374830      -14.4097586248  MEMB      103             0.0000000000
     12724       103  23SM      C10S            4.5286482492        9.0345538546      -12.5613416815  MEMB      103             0.0000000000
     12725       103  23SM      H10S            4.2337398529        9.8767314993      -11.8994602610  MEMB      103             0.0000000000
     12726       103  23SM      H10T            5.6218637520        9.0421979043      -12.7591841901  MEMB      103             0.0000000000
     12727       103  23SM      C11S            4.1841008998        7.8138141115      -11.7029077084  MEMB      103             0.0000000000
     12728       103  23SM      H11S            4.6520038578        6.8863651396      -12.0968955066  MEMB      103             0.0000000000
     12729       103  23SM      H11T            3.0769198735        7.7310289151      -11.7431331719  MEMB      103             0.0000000000
     12730       103  23SM      C12S            4.7170687108        7.9195226952      -10.2281830631  MEMB      103             0.0000000000
     12731       103  23SM      H12S            4.2412218129        8.8114631877       -9.7673871118  MEMB      103             0.0000000000
     12732       103  23SM      H12T            5.8117173734        8.1068571004      -10.2593484662  MEMB      103             0.0000000000
     12733       103  23SM      C13S            4.4555082199        6.7720292272       -9.2107150775  MEMB      103             0.0000000000
     12734       103  23SM      H13S            4.9852729751        5.9044282326       -9.6589759885  MEMB      103             0.0000000000
     12735       103  23SM      H13T            3.3548295670        6.6217098890       -9.1955047062  MEMB      103             0.0000000000
     12736       103  23SM      C14S            4.8015148206        7.0659826873       -7.7377844615  MEMB      103             0.0000000000
     12737       103  23SM      H14S            4.1859717629        7.9270442473       -7.4001432817  MEMB      103             0.0000000000
     12738       103  23SM      H14T            5.8595873872        7.4046176383       -7.7263800478  MEMB      103             0.0000000000
     12739       103  23SM      C15S            4.4677219574        5.9424745573       -6.6988469176  MEMB      103             0.0000000000
     12740       103  23SM      H15S            5.1994190612        5.1066066475       -6.7151261013  MEMB      103             0.0000000000
     12741       103  23SM      H15T            3.4875136363        5.4599971203       -6.9006597344  MEMB      103             0.0000000000
     12742       103  23SM      C16S            4.5238200862        6.5197594219       -5.2464641508  MEMB      103             0.0000000000
     12743       103  23SM      H16S            4.0834061321        7.5397379724       -5.2470559943  MEMB      103             0.0000000000
     12744       103  23SM      H16T            5.6080272963        6.7517767565       -5.1758724708  MEMB      103             0.0000000000
     12745       103  23SM      C17S            3.9239244498        5.5662703700       -4.2658370376  MEMB      103             0.0000000000
     12746       103  23SM      H17S            4.3592534222        4.6148614080       -4.6395088920  MEMB      103             0.0000000000
     12747       103  23SM      H17T            2.8139886398        5.5701743757       -4.3142941485  MEMB      103             0.0000000000
     12748       103  23SM      C18S            4.3772190864        5.8534989122       -2.8368298497  MEMB      103             0.0000000000
     12749       103  23SM      H18S            5.4373013774        6.1814893645       -2.8913169230  MEMB      103             0.0000000000
     12750       103  23SM      H18T            4.2710312070        4.9008531419       -2.2751258739  MEMB      103             0.0000000000
     12751       103  23SM      H18U            3.6760371369        6.6274114168       -2.4577203715  MEMB      103             0.0000000000
     12752       103  23SM      C1F            -0.9591798644        6.9543658270      -20.5698626435  MEMB      103             0.0000000000
     12753       103  23SM      OF             -0.4675110318        5.9540282412      -21.1596627083  MEMB      103             0.0000000000
     12754       103  23SM      C2F            -2.3748176626        7.0923734885      -20.0989673536  MEMB      103             0.0000000000
     12755       103  23SM      H2F            -3.0036815719        6.7558161267      -20.9507771484  MEMB      103             0.0000000000
     12756       103  23SM      H2G            -2.6765828831        8.1435745362      -19.9034293587  MEMB      103             0.0000000000
     12757       103  23SM      C3F            -2.7374130996        6.2122365746      -18.8757268766  MEMB      103             0.0000000000
     12758       103  23SM      H3F            -2.5564571970        5.1199369613      -18.9676912058  MEMB      103             0.0000000000
     12759       103  23SM      H3G            -3.8405716329        6.2278516624      -18.7448899602  MEMB      103             0.0000000000
     12760       103  23SM      C4F            -2.0996893094        6.6662199865      -17.5774479175  MEMB      103             0.0000000000
     12761       103  23SM      H4F            -1.0598661728        6.2807144140      -17.5105585089  MEMB      103             0.0000000000
     12762       103  23SM      H4G            -2.6268448854        6.2115889926      -16.7115725680  MEMB      103             0.0000000000
     12763       103  23SM      C5F            -2.0464943278        8.1528775768      -17.2832338273  MEMB      103             0.0000000000
     12764       103  23SM      H5F            -1.3804503873        8.5147067073      -18.0955063769  MEMB      103             0.0000000000
     12765       103  23SM      H5G            -1.4295002127        8.0916236776      -16.3613403781  MEMB      103             0.0000000000
     12766       103  23SM      C6F            -3.3115833801        8.9535651372      -17.1671564447  MEMB      103             0.0000000000
     12767       103  23SM      H6F            -4.0834296567        8.6832458911      -17.9191546907  MEMB      103             0.0000000000
     12768       103  23SM      H6G            -3.1404532277       10.0385146957      -17.3342493858  MEMB      103             0.0000000000
     12769       103  23SM      C7F            -4.0185642869        8.9775059168      -15.7631742359  MEMB      103             0.0000000000
     12770       103  23SM      H7F            -4.3711321617        7.9370155031      -15.5976534874  MEMB      103             0.0000000000
     12771       103  23SM      H7G            -4.9013473605        9.6408298363      -15.8857146445  MEMB      103             0.0000000000
     12772       103  23SM      C8F            -3.0689191791        9.5481259989      -14.6190463501  MEMB      103             0.0000000000
     12773       103  23SM      H8F            -2.5229630891       10.4762714989      -14.8925400738  MEMB      103             0.0000000000
     12774       103  23SM      H8G            -2.2348658478        8.8271297041      -14.4817852131  MEMB      103             0.0000000000
     12775       103  23SM      C9F            -3.7235577760        9.7482175749      -13.2582996957  MEMB      103             0.0000000000
     12776       103  23SM      H9F            -4.7686292662       10.0951498748      -13.4058972032  MEMB      103             0.0000000000
     12777       103  23SM      H9G            -3.1260993111       10.5067105973      -12.7087058454  MEMB      103             0.0000000000
     12778       103  23SM      C10F           -3.6667046344        8.4521438128      -12.3467896372  MEMB      103             0.0000000000
     12779       103  23SM      H10F           -3.9731668164        7.5221807172      -12.8717376495  MEMB      103             0.0000000000
     12780       103  23SM      H10G           -4.2432911955        8.7429104431      -11.4427299760  MEMB      103             0.0000000000
     12781       103  23SM      C11F           -2.3104831497        8.0553291789      -11.7264457866  MEMB      103             0.0000000000
     12782       103  23SM      H11F           -1.5932533320        7.8492085424      -12.5494993454  MEMB      103             0.0000000000
     12783       103  23SM      H11G           -2.4571000243        7.0672874315      -11.2400324934  MEMB      103             0.0000000000
     12784       103  23SM      C12F           -1.7223994300        9.0837703653      -10.6527516927  MEMB      103             0.0000000000
     12785       103  23SM      H12F           -2.5992212022        9.5664574002      -10.1705504640  MEMB      103             0.0000000000
     12786       103  23SM      H12G           -1.0966384660        9.8801570966      -11.1093835123  MEMB      103             0.0000000000
     12787       103  23SM      C13F           -0.8322079230        8.4579110932       -9.4782766034  MEMB      103             0.0000000000
     12788       103  23SM      H13F           -0.0302240759        7.9007472873      -10.0080988466  MEMB      103             0.0000000000
     12789       103  23SM      H13G           -1.4501223005        7.6976447890       -8.9543512564  MEMB      103             0.0000000000
     12790       103  23SM      C14F           -0.1267584491        9.4952228577       -8.5306369155  MEMB      103             0.0000000000
     12791       103  23SM      H14F           -0.7190538826       10.3906020847       -8.2446234160  MEMB      103             0.0000000000
     12792       103  23SM      H14G            0.8310363604        9.8458915210       -8.9710692557  MEMB      103             0.0000000000
     12793       103  23SM      C15F            0.2494035601        8.9192060502       -7.1283862376  MEMB      103             0.0000000000
     12794       103  23SM      H15F            0.6999004703        9.8394899914       -6.6989089262  MEMB      103             0.0000000000
     12795       103  23SM      H15G            1.0790871468        8.1841668028       -7.2036416607  MEMB      103             0.0000000000
     12796       103  23SM      C16F           -0.9573643983        8.5273772406       -6.2567180725  MEMB      103             0.0000000000
     12797       103  23SM      H16F           -1.5396598904        7.8041147485       -6.8667546558  MEMB      103             0.0000000000
     12798       103  23SM      H16G           -1.6366822014        9.4004064629       -6.1534323477  MEMB      103             0.0000000000
     12799       103  23SM      C17F           -0.5643485867        7.9934693490       -4.8889172089  MEMB      103             0.0000000000
     12800       103  23SM      H17F            0.0826316092        7.1111402276       -5.0818756393  MEMB      103             0.0000000000
     12801       103  23SM      H17G           -1.4734033978        7.6604559628       -4.3439014965  MEMB      103             0.0000000000
     12802       103  23SM      C18F            0.1145769611        8.9854514269       -3.9404006190  MEMB      103             0.0000000000
     12803       103  23SM      H18F            1.0902068890        9.2644522093       -4.3927566981  MEMB      103             0.0000000000
     12804       103  23SM      H18G            0.2761999578        8.4176199185       -2.9992502637  MEMB      103             0.0000000000
     12805       103  23SM      C19F           -0.8176068100       10.1863001161       -3.6803584359  MEMB      103             0.0000000000
     12806       103  23SM      H19F           -1.7774027030        9.8746671595       -3.2156030528  MEMB      103             0.0000000000
     12807       103  23SM      H19G           -0.9837347751       10.7594887368       -4.6174697908  MEMB      103             0.0000000000
     12808       103  23SM      C20F           -0.3319162513       11.1954873292       -2.6307619524  MEMB      103             0.0000000000
     12809       103  23SM      H20F           -1.1374228936       11.9545543168       -2.5343385454  MEMB      103             0.0000000000
     12810       103  23SM      H20G            0.5610115850       11.7853905558       -2.9291164459  MEMB      103             0.0000000000
     12811       103  23SM      C21F           -0.0011381659       10.5433997462       -1.3226932178  MEMB      103             0.0000000000
     12812       103  23SM      H21F            0.8682708581        9.8599734125       -1.4293569791  MEMB      103             0.0000000000
     12813       103  23SM      H21G           -0.9045391370        9.9199192743       -1.1510535521  MEMB      103             0.0000000000
     12814       103  23SM      C22F            0.2582114870       11.4941556926       -0.1651743738  MEMB      103             0.0000000000
     12815       103  23SM      H22F           -0.5497606625       12.2522229550       -0.0824991202  MEMB      103             0.0000000000
     12816       103  23SM      H22G            1.1203409926       12.1206156830       -0.4791843661  MEMB      103             0.0000000000
     12817       103  23SM      C23F            0.4465223269       10.9500418736        1.2806898149  MEMB      103             0.0000000000
     12818       103  23SM      H23F           -0.2334662789       10.0714494757        1.2772491598  MEMB      103             0.0000000000
     12819       103  23SM      H23G            0.1698256683       11.7357330174        2.0158423082  MEMB      103             0.0000000000
     12820       103  23SM      H23H            1.4940760591       10.6160207813        1.4400084410  MEMB      103             0.0000000000
     12821       104  DOPC      N               0.5845553337       -9.6465423076      -19.0029260060  MEMB      104             0.0000000000
     12822       104  DOPC      C12            -0.4130543563       -8.7303906465      -18.2042605318  MEMB      104             0.0000000000
     12823       104  DOPC      H12A            0.2229208885       -8.0696469780      -17.6338631073  MEMB      104             0.0000000000
     12824       104  DOPC      H12B           -1.1219107847       -9.2999287808      -17.6215524001  MEMB      104             0.0000000000
     12825       104  DOPC      C13            -0.1242471460      -10.3794565809      -20.1379675961  MEMB      104             0.0000000000
     12826       104  DOPC      H13A           -0.7999649112      -11.1128945699      -19.7233907569  MEMB      104             0.0000000000
     12827       104  DOPC      H13B           -0.6810274312       -9.7252415823      -20.7924890157  MEMB      104             0.0000000000
     12828       104  DOPC      H13C            0.6581132641      -10.9072526427      -20.6630805076  MEMB      104             0.0000000000
     12829       104  DOPC      C14             1.4060251213      -10.6244467076      -18.0668702203  MEMB      104             0.0000000000
     12830       104  DOPC      H14A            0.7429196642      -10.9226806774      -17.2682792104  MEMB      104             0.0000000000
     12831       104  DOPC      H14B            1.8552460341      -11.4238084031      -18.6375029609  MEMB      104             0.0000000000
     12832       104  DOPC      H14C            2.2499014401      -10.1531669890      -17.5850318320  MEMB      104             0.0000000000
     12833       104  DOPC      C15             1.7210309683       -8.7852226620      -19.5311680386  MEMB      104             0.0000000000
     12834       104  DOPC      H15A            2.4248811060       -9.3935082208      -20.0797878290  MEMB      104             0.0000000000
     12835       104  DOPC      H15B            2.1413885726       -8.3172130231      -18.6532919064  MEMB      104             0.0000000000
     12836       104  DOPC      H15C            1.3874653363       -8.0455935227      -20.2439671923  MEMB      104             0.0000000000
     12837       104  DOPC      C11            -1.2739029029       -7.7138043839      -19.0164502683  MEMB      104             0.0000000000
     12838       104  DOPC      H11A           -1.8477193322       -8.3373737287      -19.7349327362  MEMB      104             0.0000000000
     12839       104  DOPC      H11B           -2.0208269286       -7.2624972177      -18.3288840667  MEMB      104             0.0000000000
     12840       104  DOPC      P              -0.3106330200       -5.2821870390      -19.0507367896  MEMB      104             0.0000000000
     12841       104  DOPC      O13            -1.6574178433       -4.6364176861      -19.0450046867  MEMB      104             0.0000000000
     12842       104  DOPC      O14             0.7333311947       -4.4697481536      -19.7304728789  MEMB      104             0.0000000000
     12843       104  DOPC      O12            -0.4612549089       -6.7919185623      -19.6798424655  MEMB      104             0.0000000000
     12844       104  DOPC      O11             0.0988825562       -5.6758256082      -17.5343005232  MEMB      104             0.0000000000
     12845       104  DOPC      C1              0.6661036197       -4.5832016484      -16.8178822232  MEMB      104             0.0000000000
     12846       104  DOPC      HA              0.3109991669       -4.5752167740      -15.7651912202  MEMB      104             0.0000000000
     12847       104  DOPC      HB              0.3637440727       -3.6225235625      -17.2869209822  MEMB      104             0.0000000000
     12848       104  DOPC      C2              2.1578543042       -4.7649497886      -16.7638091825  MEMB      104             0.0000000000
     12849       104  DOPC      HS              2.4557195070       -4.6500078895      -17.8279453023  MEMB      104             0.0000000000
     12850       104  DOPC      O21             2.4131754143       -6.1224268923      -16.3619536373  MEMB      104             0.0000000000
     12851       104  DOPC      C21             3.3140132563       -6.8701126727      -16.9128151424  MEMB      104             0.0000000000
     12852       104  DOPC      O22             4.0697635100       -6.6627132495      -17.8046236756  MEMB      104             0.0000000000
     12853       104  DOPC      C22             3.4636416071       -8.2029807945      -16.0812951904  MEMB      104             0.0000000000
     12854       104  DOPC      H2R             4.4602296440       -8.2784775355      -15.5960797780  MEMB      104             0.0000000000
     12855       104  DOPC      H2S             3.3749600124       -9.1155868257      -16.7086763142  MEMB      104             0.0000000000
     12856       104  DOPC      C3              2.7626274169       -3.7108533599      -15.8450105257  MEMB      104             0.0000000000
     12857       104  DOPC      HX              2.6266935271       -2.7564774860      -16.3972873149  MEMB      104             0.0000000000
     12858       104  DOPC      HY              3.8597735778       -3.8009893100      -15.6951215847  MEMB      104             0.0000000000
     12859       104  DOPC      O31             2.0178289337       -3.4576517403      -14.6797817499  MEMB      104             0.0000000000
     12860       104  DOPC      C31             2.3789091426       -4.0950361364      -13.5345710048  MEMB      104             0.0000000000
     12861       104  DOPC      O32             3.4255570873       -4.6855811602      -13.3294416427  MEMB      104             0.0000000000
     12862       104  DOPC      C32             1.4386858542       -3.7607113640      -12.4295706306  MEMB      104             0.0000000000
     12863       104  DOPC      H2X             1.8178098948       -4.1164196852      -11.4477063953  MEMB      104             0.0000000000
     12864       104  DOPC      H2Y             1.2976783322       -2.6601013658      -12.3739279819  MEMB      104             0.0000000000
     12865       104  DOPC      C23             2.4181015572       -8.2701120110      -14.9920611895  MEMB      104             0.0000000000
     12866       104  DOPC      H3R             1.3387491926       -8.3311016755      -15.2481855312  MEMB      104             0.0000000000
     12867       104  DOPC      H3S             2.7268039139       -7.5083909329      -14.2445287591  MEMB      104             0.0000000000
     12868       104  DOPC      C24             2.5412056497       -9.5730505410      -14.1397689657  MEMB      104             0.0000000000
     12869       104  DOPC      H4R             3.6345341625       -9.7638175862      -14.0891508518  MEMB      104             0.0000000000
     12870       104  DOPC      H4S             2.1503472489      -10.3839787005      -14.7908803937  MEMB      104             0.0000000000
     12871       104  DOPC      C25             1.7441798024       -9.5375512592      -12.8128046588  MEMB      104             0.0000000000
     12872       104  DOPC      H5R             0.6689761015       -9.3958863477      -13.0540284503  MEMB      104             0.0000000000
     12873       104  DOPC      H5S             2.1844143591       -8.6895840697      -12.2458247928  MEMB      104             0.0000000000
     12874       104  DOPC      C26             1.9209729889      -10.7702145773      -11.9559976520  MEMB      104             0.0000000000
     12875       104  DOPC      H6R             2.9476323313      -10.7460429661      -11.5320784598  MEMB      104             0.0000000000
     12876       104  DOPC      H6S             1.9033991660      -11.7729938797      -12.4339575064  MEMB      104             0.0000000000
     12877       104  DOPC      C27             0.8635620599      -10.7110918113      -10.7605608199  MEMB      104             0.0000000000
     12878       104  DOPC      H7R             1.0143853436      -11.6297102312      -10.1541663856  MEMB      104             0.0000000000
     12879       104  DOPC      H7S            -0.1146656918      -10.8271525017      -11.2742935156  MEMB      104             0.0000000000
     12880       104  DOPC      C28             0.8039592837       -9.3809310286       -9.9395563692  MEMB      104             0.0000000000
     12881       104  DOPC      H8R            -0.1276675815       -9.5600232120       -9.3613538097  MEMB      104             0.0000000000
     12882       104  DOPC      H8S             0.5240626895       -8.5530108114      -10.6255054826  MEMB      104             0.0000000000
     12883       104  DOPC      C29             1.8373310073       -9.0264175713       -8.9116947264  MEMB      104             0.0000000000
     12884       104  DOPC      H9R             1.9880675560       -9.8720807992       -8.2245755960  MEMB      104             0.0000000000
     12885       104  DOPC      C210            2.4830774535       -7.8494345831       -8.7066766753  MEMB      104             0.0000000000
     12886       104  DOPC      H10R            3.3773627534       -7.9167990365       -8.0697180921  MEMB      104             0.0000000000
     12887       104  DOPC      C211            2.3437470608       -6.5195780282       -9.4897875994  MEMB      104             0.0000000000
     12888       104  DOPC      H11R            1.6580433529       -6.6439771270      -10.3550365652  MEMB      104             0.0000000000
     12889       104  DOPC      H11S            3.3519897713       -6.2623197918       -9.8791282175  MEMB      104             0.0000000000
     12890       104  DOPC      C212            1.8898400661       -5.3173240317       -8.6112656514  MEMB      104             0.0000000000
     12891       104  DOPC      H12R            0.9542810177       -5.7280187758       -8.1749390646  MEMB      104             0.0000000000
     12892       104  DOPC      H12S            1.6224489710       -4.5166345330       -9.3335663230  MEMB      104             0.0000000000
     12893       104  DOPC      C213            3.0887353430       -5.0209155265       -7.6913785560  MEMB      104             0.0000000000
     12894       104  DOPC      H13R            4.0548975660       -5.2856263778       -8.1717739403  MEMB      104             0.0000000000
     12895       104  DOPC      H13S            3.0329714290       -5.6341259280       -6.7666173796  MEMB      104             0.0000000000
     12896       104  DOPC      C214            3.1216471615       -3.5168685240       -7.3403763588  MEMB      104             0.0000000000
     12897       104  DOPC      H14R            2.1468118061       -3.0383333223       -7.5749421122  MEMB      104             0.0000000000
     12898       104  DOPC      H14S            3.8720739176       -3.0733184571       -8.0291752629  MEMB      104             0.0000000000
     12899       104  DOPC      C215            3.3503425521       -3.2324457366       -5.9020070548  MEMB      104             0.0000000000
     12900       104  DOPC      H15R            3.5982179316       -2.1516287339       -5.8333498476  MEMB      104             0.0000000000
     12901       104  DOPC      H15S            4.1825672370       -3.8854661523       -5.5624661911  MEMB      104             0.0000000000
     12902       104  DOPC      C216            2.0616566608       -3.6349475497       -5.0427893608  MEMB      104             0.0000000000
     12903       104  DOPC      H16R            2.0729379664       -4.7371371824       -5.1819721866  MEMB      104             0.0000000000
     12904       104  DOPC      H16S            1.2382287096       -3.1286136113       -5.5904331407  MEMB      104             0.0000000000
     12905       104  DOPC      C217            2.1228097693       -3.1907398316       -3.5226581204  MEMB      104             0.0000000000
     12906       104  DOPC      H17R            1.1252646357       -2.7969148695       -3.2326128019  MEMB      104             0.0000000000
     12907       104  DOPC      H17S            2.8210956995       -2.3309183128       -3.6088284324  MEMB      104             0.0000000000
     12908       104  DOPC      C218            2.6977275911       -4.2373117878       -2.6220484520  MEMB      104             0.0000000000
     12909       104  DOPC      H18R            2.1155513696       -5.1785448769       -2.7193724031  MEMB      104             0.0000000000
     12910       104  DOPC      H18S            2.6293489329       -3.9048358722       -1.5641713165  MEMB      104             0.0000000000
     12911       104  DOPC      H18T            3.7428408274       -4.4725220735       -2.9165559056  MEMB      104             0.0000000000
     12912       104  DOPC      C33             0.0520702118       -4.4904766628      -12.7447470835  MEMB      104             0.0000000000
     12913       104  DOPC      H3X            -0.0451253477       -5.4368212936      -12.1708955379  MEMB      104             0.0000000000
     12914       104  DOPC      H3Y             0.0596042354       -4.8366555630      -13.8004102099  MEMB      104             0.0000000000
     12915       104  DOPC      C34            -1.1602497409       -3.5996943058      -12.4438735539  MEMB      104             0.0000000000
     12916       104  DOPC      H4X            -2.1166533130       -4.1190689023      -12.6671739623  MEMB      104             0.0000000000
     12917       104  DOPC      H4Y            -1.0772732069       -2.6393769986      -12.9963462173  MEMB      104             0.0000000000
     12918       104  DOPC      C35            -1.2139520381       -3.2218096641      -10.9133608195  MEMB      104             0.0000000000
     12919       104  DOPC      H5X            -2.0103423412       -2.4535235864      -10.8142644303  MEMB      104             0.0000000000
     12920       104  DOPC      H5Y            -0.2967682267       -2.6350155916      -10.6925259581  MEMB      104             0.0000000000
     12921       104  DOPC      C36            -1.5340065771       -4.4368492357       -9.9673246084  MEMB      104             0.0000000000
     12922       104  DOPC      H6X            -2.5257222794       -4.8436048274      -10.2595078885  MEMB      104             0.0000000000
     12923       104  DOPC      H6Y            -0.7827594141       -5.2483240162      -10.0743637881  MEMB      104             0.0000000000
     12924       104  DOPC      C37            -1.4914191168       -3.9176685611       -8.4945635476  MEMB      104             0.0000000000
     12925       104  DOPC      H7X            -0.4762759580       -3.4987649237       -8.3262634652  MEMB      104             0.0000000000
     12926       104  DOPC      H7Y            -2.0443590412       -2.9648345809       -8.3507390613  MEMB      104             0.0000000000
     12927       104  DOPC      C38            -1.9049784632       -4.9804928249       -7.5249698261  MEMB      104             0.0000000000
     12928       104  DOPC      H8X            -1.6849993039       -6.0069172966       -7.8888140226  MEMB      104             0.0000000000
     12929       104  DOPC      H8Y            -3.0044836454       -5.0437446336       -7.3786538041  MEMB      104             0.0000000000
     12930       104  DOPC      C39            -1.1061718960       -4.7295631070       -6.2905499944  MEMB      104             0.0000000000
     12931       104  DOPC      H9X            -0.0694797649       -5.0924129092       -6.2304709941  MEMB      104             0.0000000000
     12932       104  DOPC      C310           -1.5806897053       -4.2785990341       -5.0903806821  MEMB      104             0.0000000000
     12933       104  DOPC      H10X           -0.9150216178       -4.3862458276       -4.2213015038  MEMB      104             0.0000000000
     12934       104  DOPC      C311           -3.0087173226       -3.9593668839       -4.6879498310  MEMB      104             0.0000000000
     12935       104  DOPC      H11X           -3.5720194169       -3.7672551516       -5.6260888033  MEMB      104             0.0000000000
     12936       104  DOPC      H11Y           -3.0262438940       -3.0785068897       -4.0111195308  MEMB      104             0.0000000000
     12937       104  DOPC      C312           -3.6685011944       -5.2169663758       -3.9267126783  MEMB      104             0.0000000000
     12938       104  DOPC      H12X           -3.1589263823       -5.4103624305       -2.9585935835  MEMB      104             0.0000000000
     12939       104  DOPC      H12Y           -3.6596602380       -6.1696035888       -4.4983107601  MEMB      104             0.0000000000
     12940       104  DOPC      C313           -5.1004234281       -4.8141509432       -3.5023383663  MEMB      104             0.0000000000
     12941       104  DOPC      H13X           -4.9965885117       -3.8559283179       -2.9497547490  MEMB      104             0.0000000000
     12942       104  DOPC      H13Y           -5.7003099712       -4.7886748343       -4.4371153123  MEMB      104             0.0000000000
     12943       104  DOPC      C314           -5.8036431432       -5.8129246095       -2.6821121334  MEMB      104             0.0000000000
     12944       104  DOPC      H14X           -6.8585802217       -5.5123007947       -2.5058913921  MEMB      104             0.0000000000
     12945       104  DOPC      H14Y           -5.8176610334       -6.7220029017       -3.3206266561  MEMB      104             0.0000000000
     12946       104  DOPC      C315           -5.1681634650       -6.0144639664       -1.3132746559  MEMB      104             0.0000000000
     12947       104  DOPC      H15X           -4.3208192669       -6.7151364452       -1.4726082507  MEMB      104             0.0000000000
     12948       104  DOPC      H15Y           -5.9402394788       -6.5385340226       -0.7103066892  MEMB      104             0.0000000000
     12949       104  DOPC      C316           -4.7212275864       -4.7964301107       -0.5324221183  MEMB      104             0.0000000000
     12950       104  DOPC      H16X           -4.0650830956       -4.2227963734       -1.2214352155  MEMB      104             0.0000000000
     12951       104  DOPC      H16Y           -5.5832952925       -4.1227607763       -0.3392140877  MEMB      104             0.0000000000
     12952       104  DOPC      C317           -3.8457107054       -4.9031461660        0.7577907193  MEMB      104             0.0000000000
     12953       104  DOPC      H17X           -3.6792505778       -3.9110768683        1.2293935608  MEMB      104             0.0000000000
     12954       104  DOPC      H17Y           -4.4351970471       -5.5260308660        1.4640772298  MEMB      104             0.0000000000
     12955       104  DOPC      C318           -2.4674840872       -5.5072069405        0.5772327211  MEMB      104             0.0000000000
     12956       104  DOPC      H18X           -1.9579183189       -4.7402056973       -0.0443571980  MEMB      104             0.0000000000
     12957       104  DOPC      H18Y           -1.9211887263       -5.6701734669        1.5308181960  MEMB      104             0.0000000000
     12958       104  DOPC      H18Z           -2.4296677044       -6.3776125009       -0.1121777155  MEMB      104             0.0000000000
     12959       105  DOPC      N              -6.2170166150        6.1954598464      -20.3738729107  MEMB      105             0.0000000000
     12960       105  DOPC      C12            -6.4384122147        5.8297151053      -18.8907548250  MEMB      105             0.0000000000
     12961       105  DOPC      H12A           -6.1294576440        6.6657203947      -18.2808020908  MEMB      105             0.0000000000
     12962       105  DOPC      H12B           -5.8285157301        4.9570667760      -18.7093403345  MEMB      105             0.0000000000
     12963       105  DOPC      C13            -6.9438994952        5.1024205975      -21.1810081432  MEMB      105             0.0000000000
     12964       105  DOPC      H13A           -6.6441319046        4.1308565092      -20.8168617557  MEMB      105             0.0000000000
     12965       105  DOPC      H13B           -7.9690097866        5.4261166809      -21.0772307245  MEMB      105             0.0000000000
     12966       105  DOPC      H13C           -6.6878253558        5.1856633582      -22.2269031625  MEMB      105             0.0000000000
     12967       105  DOPC      C14            -4.7182412941        6.0931241714      -20.6704366277  MEMB      105             0.0000000000
     12968       105  DOPC      H14A           -4.4109140707        5.0642492580      -20.5548232354  MEMB      105             0.0000000000
     12969       105  DOPC      H14B           -4.7648744583        6.2874929935      -21.7317781516  MEMB      105             0.0000000000
     12970       105  DOPC      H14C           -4.1182672622        6.8772633919      -20.2327644716  MEMB      105             0.0000000000
     12971       105  DOPC      C15            -6.5492693216        7.5720597629      -20.7541516847  MEMB      105             0.0000000000
     12972       105  DOPC      H15A           -6.1187875263        8.2248896104      -20.0092366268  MEMB      105             0.0000000000
     12973       105  DOPC      H15B           -7.5962623721        7.7151657099      -20.9771455339  MEMB      105             0.0000000000
     12974       105  DOPC      H15C           -6.0749178791        7.7997541791      -21.6973091986  MEMB      105             0.0000000000
     12975       105  DOPC      C11            -7.9132487991        5.5808512919      -18.3992396894  MEMB      105             0.0000000000
     12976       105  DOPC      H11A           -8.2005592861        4.5503107990      -18.6988395606  MEMB      105             0.0000000000
     12977       105  DOPC      H11B           -7.8648391678        5.5312284154      -17.2904046580  MEMB      105             0.0000000000
     12978       105  DOPC      P              -8.9909287567        7.8541502850      -17.7185661001  MEMB      105             0.0000000000
     12979       105  DOPC      O13            -9.4375420175        7.2539089286      -16.4578000908  MEMB      105             0.0000000000
     12980       105  DOPC      O14            -9.8792591731        8.8915550340      -18.2800119779  MEMB      105             0.0000000000
     12981       105  DOPC      O12            -8.7530992363        6.6811495002      -18.8139190229  MEMB      105             0.0000000000
     12982       105  DOPC      O11            -7.5358497659        8.4465567479      -17.4602389242  MEMB      105             0.0000000000
     12983       105  DOPC      C1             -7.3007897078        9.7134357709      -16.7999989612  MEMB      105             0.0000000000
     12984       105  DOPC      HA             -8.1482052531        9.9841434739      -16.1344728887  MEMB      105             0.0000000000
     12985       105  DOPC      HB             -7.2574941702       10.4787892980      -17.6041635620  MEMB      105             0.0000000000
     12986       105  DOPC      C2             -5.9426017186        9.6456429628      -16.0378349396  MEMB      105             0.0000000000
     12987       105  DOPC      HS             -5.0592796337        9.3198953784      -16.6277093425  MEMB      105             0.0000000000
     12988       105  DOPC      O21            -6.0418514911        8.6863592222      -14.9296364360  MEMB      105             0.0000000000
     12989       105  DOPC      C21            -4.9850575434        8.3025933300      -14.2717905426  MEMB      105             0.0000000000
     12990       105  DOPC      O22            -3.8113046199        8.5079240823      -14.6621235409  MEMB      105             0.0000000000
     12991       105  DOPC      C22            -5.3756672318        7.6658157426      -12.8937751125  MEMB      105             0.0000000000
     12992       105  DOPC      H2R            -4.8184304628        6.7097569522      -12.9925667198  MEMB      105             0.0000000000
     12993       105  DOPC      H2S            -6.4729402236        7.5057762819      -12.9623335022  MEMB      105             0.0000000000
     12994       105  DOPC      C3             -5.7364248632       11.1040724999      -15.4891932497  MEMB      105             0.0000000000
     12995       105  DOPC      HX             -5.2217857202       11.6421109381      -16.3138034498  MEMB      105             0.0000000000
     12996       105  DOPC      HY             -5.0108426598       11.0698926254      -14.6485486476  MEMB      105             0.0000000000
     12997       105  DOPC      O31            -6.8701224026       11.8632580052      -15.0400264840  MEMB      105             0.0000000000
     12998       105  DOPC      C31            -7.3915748804       11.3919361802      -13.8733316086  MEMB      105             0.0000000000
     12999       105  DOPC      O32            -6.8364625754       10.5984163740      -13.1398036952  MEMB      105             0.0000000000
     13000       105  DOPC      C32            -8.6726352663       12.1765329410      -13.6395692250  MEMB      105             0.0000000000
     13001       105  DOPC      H2X            -8.3804613325       13.2302528580      -13.4430232469  MEMB      105             0.0000000000
     13002       105  DOPC      H2Y            -9.3185446871       12.1550448865      -14.5432619198  MEMB      105             0.0000000000
     13003       105  DOPC      C23            -4.9119068419        8.4048702586      -11.6495467708  MEMB      105             0.0000000000
     13004       105  DOPC      H3R            -4.5303346871        9.3663932692      -12.0547593181  MEMB      105             0.0000000000
     13005       105  DOPC      H3S            -4.0261723056        7.9405474699      -11.1656054485  MEMB      105             0.0000000000
     13006       105  DOPC      C24            -6.0806624865        8.5746798181      -10.7520544905  MEMB      105             0.0000000000
     13007       105  DOPC      H4R            -6.9934326246        8.9677460541      -11.2487140792  MEMB      105             0.0000000000
     13008       105  DOPC      H4S            -5.7965158980        9.4405852242      -10.1166109489  MEMB      105             0.0000000000
     13009       105  DOPC      C25            -6.4218967902        7.2267430318      -10.0852536044  MEMB      105             0.0000000000
     13010       105  DOPC      H5R            -6.7841751202        6.4963524107      -10.8399754146  MEMB      105             0.0000000000
     13011       105  DOPC      H5S            -7.3219097656        7.3816788881       -9.4525667613  MEMB      105             0.0000000000
     13012       105  DOPC      C26            -5.3212706173        6.5268539783       -9.2288076725  MEMB      105             0.0000000000
     13013       105  DOPC      H6R            -4.7502362721        5.8350750813       -9.8843108618  MEMB      105             0.0000000000
     13014       105  DOPC      H6S            -5.8176522683        5.9068555045       -8.4519370044  MEMB      105             0.0000000000
     13015       105  DOPC      C27            -4.4357270830        7.4893756567       -8.4248349960  MEMB      105             0.0000000000
     13016       105  DOPC      H7R            -3.9473486908        8.3098872902       -8.9927855945  MEMB      105             0.0000000000
     13017       105  DOPC      H7S            -3.7241255622        6.9007973125       -7.8071617516  MEMB      105             0.0000000000
     13018       105  DOPC      C28            -5.2450250169        8.4360112787       -7.3655831676  MEMB      105             0.0000000000
     13019       105  DOPC      H8R            -5.9715244596        8.9967139504       -7.9917879196  MEMB      105             0.0000000000
     13020       105  DOPC      H8S            -4.3965884225        9.0653665543       -7.0215076436  MEMB      105             0.0000000000
     13021       105  DOPC      C29            -6.0606075520        7.7317704340       -6.3285579519  MEMB      105             0.0000000000
     13022       105  DOPC      H9R            -6.7688830936        7.0586845224       -6.8338312918  MEMB      105             0.0000000000
     13023       105  DOPC      C210           -6.0036180840        7.7603536168       -4.9829579587  MEMB      105             0.0000000000
     13024       105  DOPC      H10R           -6.7329300939        7.2435549474       -4.3418474270  MEMB      105             0.0000000000
     13025       105  DOPC      C211           -5.0615057487        8.5178420734       -4.1372896665  MEMB      105             0.0000000000
     13026       105  DOPC      H11R           -4.2748306577        9.0526515101       -4.7112601950  MEMB      105             0.0000000000
     13027       105  DOPC      H11S           -4.6473138546        7.7120655848       -3.4942573579  MEMB      105             0.0000000000
     13028       105  DOPC      C212           -5.8601278091        9.5107393017       -3.1690055729  MEMB      105             0.0000000000
     13029       105  DOPC      H12R           -6.5380374379       10.1892770253       -3.7296707503  MEMB      105             0.0000000000
     13030       105  DOPC      H12S           -5.0974475119       10.0681225758       -2.5842272050  MEMB      105             0.0000000000
     13031       105  DOPC      C213           -6.8139006890        8.7158354959       -2.1714476611  MEMB      105             0.0000000000
     13032       105  DOPC      H13R           -7.5914328862        8.1958023184       -2.7708885363  MEMB      105             0.0000000000
     13033       105  DOPC      H13S           -7.1863612502        9.4930905845       -1.4703995404  MEMB      105             0.0000000000
     13034       105  DOPC      C214           -6.1543503574        7.5947377307       -1.2315612010  MEMB      105             0.0000000000
     13035       105  DOPC      H14R           -5.7198716321        6.7722095297       -1.8390125460  MEMB      105             0.0000000000
     13036       105  DOPC      H14S           -6.8381871199        7.2399312698       -0.4310621991  MEMB      105             0.0000000000
     13037       105  DOPC      C215           -4.9141390913        8.0184901800       -0.4088257148  MEMB      105             0.0000000000
     13038       105  DOPC      H15R           -4.1037422753        8.4022111977       -1.0648273884  MEMB      105             0.0000000000
     13039       105  DOPC      H15S           -4.5263533407        7.1138094543        0.1064363791  MEMB      105             0.0000000000
     13040       105  DOPC      C216           -5.2672070616        9.0687404771        0.6623036273  MEMB      105             0.0000000000
     13041       105  DOPC      H16R           -6.0833065614        8.6555008691        1.2928073512  MEMB      105             0.0000000000
     13042       105  DOPC      H16S           -5.7593508121        9.8803629947        0.0849084165  MEMB      105             0.0000000000
     13043       105  DOPC      C217           -3.9771640422        9.5564638000        1.4323181260  MEMB      105             0.0000000000
     13044       105  DOPC      H17R           -3.8153486930       10.6005299409        1.0887161322  MEMB      105             0.0000000000
     13045       105  DOPC      H17S           -3.0859257588        9.0150112148        1.0491163180  MEMB      105             0.0000000000
     13046       105  DOPC      C218           -4.2871143830        9.5605553656        2.9266992885  MEMB      105             0.0000000000
     13047       105  DOPC      H18R           -4.4215644458        8.5790962159        3.4296723400  MEMB      105             0.0000000000
     13048       105  DOPC      H18S           -5.2454858526       10.0802273707        3.1406786832  MEMB      105             0.0000000000
     13049       105  DOPC      H18T           -3.5802570663       10.1853722579        3.5134498171  MEMB      105             0.0000000000
     13050       105  DOPC      C33            -9.4279007939       11.5505443614      -12.4564585184  MEMB      105             0.0000000000
     13051       105  DOPC      H3X            -8.8347932160       11.5604365496      -11.5170727376  MEMB      105             0.0000000000
     13052       105  DOPC      H3Y            -9.7384523957       10.5279087895      -12.7599304034  MEMB      105             0.0000000000
     13053       105  DOPC      C34           -10.8155057838       12.1218429722      -12.1470615844  MEMB      105             0.0000000000
     13054       105  DOPC      H4X           -11.4810487028       11.7348033621      -12.9480449665  MEMB      105             0.0000000000
     13055       105  DOPC      H4Y           -10.8791959172       13.2217041084      -12.0036415252  MEMB      105             0.0000000000
     13056       105  DOPC      C35           -11.3975083957       11.3900746683      -10.8807008852  MEMB      105             0.0000000000
     13057       105  DOPC      H5X           -11.3760630436       10.2802501789      -10.9270733866  MEMB      105             0.0000000000
     13058       105  DOPC      H5Y           -12.4790145381       11.5810512013      -11.0486094667  MEMB      105             0.0000000000
     13059       105  DOPC      C36           -11.1370110156       12.1050475422       -9.5172930238  MEMB      105             0.0000000000
     13060       105  DOPC      H6X           -10.0877562191       12.4418873327       -9.3761401755  MEMB      105             0.0000000000
     13061       105  DOPC      H6Y           -11.7777585341       12.9828615225       -9.2866303520  MEMB      105             0.0000000000
     13062       105  DOPC      C37           -11.4284212835       11.0652561509       -8.4163559418  MEMB      105             0.0000000000
     13063       105  DOPC      H7X           -11.4932460989       11.5532224907       -7.4203603824  MEMB      105             0.0000000000
     13064       105  DOPC      H7Y           -12.4721487960       10.7108403445       -8.5554353858  MEMB      105             0.0000000000
     13065       105  DOPC      C38           -10.5143277703        9.8377787055       -8.3956586299  MEMB      105             0.0000000000
     13066       105  DOPC      H8X           -10.2629619097        9.5392452414       -9.4358581710  MEMB      105             0.0000000000
     13067       105  DOPC      H8Y           -11.0015431680        8.9763659480       -7.8907722224  MEMB      105             0.0000000000
     13068       105  DOPC      C39            -9.2235339351       10.2223890835       -7.6600354489  MEMB      105             0.0000000000
     13069       105  DOPC      H9X            -8.5865803578       10.8628326594       -8.2878270088  MEMB      105             0.0000000000
     13070       105  DOPC      C310           -8.8368842794        9.8864094376       -6.4009567072  MEMB      105             0.0000000000
     13071       105  DOPC      H10X           -7.9653259384       10.4079256928       -5.9785743460  MEMB      105             0.0000000000
     13072       105  DOPC      C311           -9.6462552306        9.0113401122       -5.3969488516  MEMB      105             0.0000000000
     13073       105  DOPC      H11X           -8.9497790580        8.3945661743       -4.7896335373  MEMB      105             0.0000000000
     13074       105  DOPC      H11Y          -10.2792329590        8.2231113486       -5.8577696454  MEMB      105             0.0000000000
     13075       105  DOPC      C312          -10.4715244373        9.9156334645       -4.4793181592  MEMB      105             0.0000000000
     13076       105  DOPC      H12X          -11.2229872709       10.4549861554       -5.0947236323  MEMB      105             0.0000000000
     13077       105  DOPC      H12Y           -9.8546513749       10.6474637112       -3.9152145270  MEMB      105             0.0000000000
     13078       105  DOPC      C313          -11.1093175769        9.0119486891       -3.3553715239  MEMB      105             0.0000000000
     13079       105  DOPC      H13X          -11.7917880454        8.2287097282       -3.7491882498  MEMB      105             0.0000000000
     13080       105  DOPC      H13Y          -10.1931374885        8.4499790168       -3.0740796550  MEMB      105             0.0000000000
     13081       105  DOPC      C314          -11.8334129967        9.8730857358       -2.3158439976  MEMB      105             0.0000000000
     13082       105  DOPC      H14X          -12.8228932178       10.1508035605       -2.7378905757  MEMB      105             0.0000000000
     13083       105  DOPC      H14Y          -12.0779280003        9.1679937503       -1.4928138069  MEMB      105             0.0000000000
     13084       105  DOPC      C315          -11.1289429281       11.1499776943       -1.7523944566  MEMB      105             0.0000000000
     13085       105  DOPC      H15X          -11.8752843573       11.5993803509       -1.0629502243  MEMB      105             0.0000000000
     13086       105  DOPC      H15Y          -10.9837456139       11.8101394730       -2.6341119527  MEMB      105             0.0000000000
     13087       105  DOPC      C316           -9.8740106349       10.8369482568       -0.9929657719  MEMB      105             0.0000000000
     13088       105  DOPC      H16X           -9.5269039006        9.8660905497       -1.4068169896  MEMB      105             0.0000000000
     13089       105  DOPC      H16Y           -9.1596296863       11.6874432268       -0.9676846146  MEMB      105             0.0000000000
     13090       105  DOPC      C317          -10.0886639228       10.5596656629        0.4837554049  MEMB      105             0.0000000000
     13091       105  DOPC      H17X          -11.0026031795        9.9279755378        0.4819597102  MEMB      105             0.0000000000
     13092       105  DOPC      H17Y           -9.2465774828        9.9432964924        0.8649390470  MEMB      105             0.0000000000
     13093       105  DOPC      C318          -10.2568328190       11.7796863891        1.3829803974  MEMB      105             0.0000000000
     13094       105  DOPC      H18X          -10.5894979978       11.4469410415        2.3894269547  MEMB      105             0.0000000000
     13095       105  DOPC      H18Y           -9.4537583049       12.5429829441        1.3006962616  MEMB      105             0.0000000000
     13096       105  DOPC      H18Z          -11.1460850320       12.3523420689        1.0429557069  MEMB      105             0.0000000000
     13097       106  DOPE      N              -6.6261423658       -6.0325015776      -21.1223819515  MEMB      106             0.0000000000
     13098       106  DOPE      HN1            -6.7017211846       -7.0176514620      -21.4469854746  MEMB      106             0.0000000000
     13099       106  DOPE      HN2            -7.5498827823       -5.5691717595      -21.0056380349  MEMB      106             0.0000000000
     13100       106  DOPE      HN3            -6.0430527545       -5.4698647625      -21.7743376803  MEMB      106             0.0000000000
     13101       106  DOPE      C12            -5.9729072133       -6.0113547843      -19.7006782171  MEMB      106             0.0000000000
     13102       106  DOPE      H12A           -5.5765248612       -5.0215724834      -19.3883754846  MEMB      106             0.0000000000
     13103       106  DOPE      H12B           -5.2468494126       -6.8492339072      -19.7722284340  MEMB      106             0.0000000000
     13104       106  DOPE      C11            -7.0240419507       -6.3715441441      -18.6250066970  MEMB      106             0.0000000000
     13105       106  DOPE      H11A           -7.6468331567       -5.4758049737      -18.4149989054  MEMB      106             0.0000000000
     13106       106  DOPE      H11B           -6.4616237819       -6.5221443454      -17.6787898770  MEMB      106             0.0000000000
     13107       106  DOPE      P              -9.1803581686       -7.8852967119      -18.5709073079  MEMB      106             0.0000000000
     13108       106  DOPE      O13            -9.7511810463       -8.8891963787      -19.4930501892  MEMB      106             0.0000000000
     13109       106  DOPE      O14            -9.9211212325       -6.5943468912      -18.3622118945  MEMB      106             0.0000000000
     13110       106  DOPE      O11            -8.9457055814       -8.5439941682      -17.1663172113  MEMB      106             0.0000000000
     13111       106  DOPE      O12            -7.6492935070       -7.5677271939      -18.9594465193  MEMB      106             0.0000000000
     13112       106  DOPE      C1             -8.0275031230       -9.5500763508      -16.8510977674  MEMB      106             0.0000000000
     13113       106  DOPE      HA             -6.9846048353       -9.3173890840      -17.1553028823  MEMB      106             0.0000000000
     13114       106  DOPE      HB             -8.3057129685      -10.5044910078      -17.3470943605  MEMB      106             0.0000000000
     13115       106  DOPE      C2             -7.9636543301       -9.9500146671      -15.3971057454  MEMB      106             0.0000000000
     13116       106  DOPE      HS             -7.2223707311      -10.7746153387      -15.3274396826  MEMB      106             0.0000000000
     13117       106  DOPE      O21            -9.2296365178      -10.3253064568      -14.9230069125  MEMB      106             0.0000000000
     13118       106  DOPE      C21            -9.7202502560      -11.5086547049      -15.2413539248  MEMB      106             0.0000000000
     13119       106  DOPE      O22            -9.2232963327      -12.3971009912      -15.8912760091  MEMB      106             0.0000000000
     13120       106  DOPE      C22           -11.0541591036      -11.7301989540      -14.4684072177  MEMB      106             0.0000000000
     13121       106  DOPE      H2R           -11.4186073544      -12.7254613540      -14.8015004759  MEMB      106             0.0000000000
     13122       106  DOPE      H2S           -11.7125086527      -10.8964375399      -14.7935816993  MEMB      106             0.0000000000
     13123       106  DOPE      C3             -7.3789338688       -8.8461738266      -14.4084273708  MEMB      106             0.0000000000
     13124       106  DOPE      HX             -6.3547579021       -8.5666800188      -14.7359451417  MEMB      106             0.0000000000
     13125       106  DOPE      HY             -7.2885418173       -9.2157265342      -13.3645974295  MEMB      106             0.0000000000
     13126       106  DOPE      O31            -8.3352548807       -7.7846711973      -14.4255505034  MEMB      106             0.0000000000
     13127       106  DOPE      C31            -7.8103057780       -6.5522288155      -14.2302783311  MEMB      106             0.0000000000
     13128       106  DOPE      O32            -6.6221257987       -6.2647748766      -14.2438494215  MEMB      106             0.0000000000
     13129       106  DOPE      C32            -8.9856698241       -5.7090303325      -13.9292336144  MEMB      106             0.0000000000
     13130       106  DOPE      H2X            -9.5989870502       -5.5779635104      -14.8462855331  MEMB      106             0.0000000000
     13131       106  DOPE      H2Y            -9.6265770179       -6.2431172656      -13.1955374259  MEMB      106             0.0000000000
     13132       106  DOPE      C23           -10.9720115476      -11.7665318550      -12.9288782657  MEMB      106             0.0000000000
     13133       106  DOPE      H3R           -10.2247257905      -12.5490097607      -12.6766625596  MEMB      106             0.0000000000
     13134       106  DOPE      H3S           -11.8974987093      -12.2432743910      -12.5409204597  MEMB      106             0.0000000000
     13135       106  DOPE      C24           -10.9224995960      -10.4385661981      -12.1989222201  MEMB      106             0.0000000000
     13136       106  DOPE      H4R           -11.8361012016       -9.9310512552      -12.5758598712  MEMB      106             0.0000000000
     13137       106  DOPE      H4S           -10.0063426842       -9.9120446504      -12.5420732210  MEMB      106             0.0000000000
     13138       106  DOPE      C25           -11.0707114496      -10.5168464955      -10.6909072139  MEMB      106             0.0000000000
     13139       106  DOPE      H5R           -10.3649379673      -11.3361861503      -10.4361768818  MEMB      106             0.0000000000
     13140       106  DOPE      H5S           -12.0620483298      -10.9901959589      -10.5250382236  MEMB      106             0.0000000000
     13141       106  DOPE      C26           -10.8348429859       -9.2104881827       -9.9664221959  MEMB      106             0.0000000000
     13142       106  DOPE      H6R           -10.9664116087       -8.3941854030      -10.7084868972  MEMB      106             0.0000000000
     13143       106  DOPE      H6S            -9.7273743313       -9.2103135085       -9.8779121722  MEMB      106             0.0000000000
     13144       106  DOPE      C27           -11.5769621488       -9.0113251090       -8.5995361660  MEMB      106             0.0000000000
     13145       106  DOPE      H7R           -11.0871548423       -8.0975745253       -8.2001999977  MEMB      106             0.0000000000
     13146       106  DOPE      H7S           -11.3947440808       -9.9006374789       -7.9590355971  MEMB      106             0.0000000000
     13147       106  DOPE      C28           -13.1033071041       -8.9201809094       -8.7429119569  MEMB      106             0.0000000000
     13148       106  DOPE      H8R           -13.4580515191       -8.9851590390       -7.6920760257  MEMB      106             0.0000000000
     13149       106  DOPE      H8S           -13.2936803271       -9.8481128939       -9.3234470830  MEMB      106             0.0000000000
     13150       106  DOPE      C29           -13.5609491323       -7.6991085207       -9.4945542901  MEMB      106             0.0000000000
     13151       106  DOPE      H9R           -13.4588272749       -7.9891075351      -10.5507136304  MEMB      106             0.0000000000
     13152       106  DOPE      C210          -14.1767513598       -6.5152065892       -9.0883080726  MEMB      106             0.0000000000
     13153       106  DOPE      H10R          -14.4226932357       -5.8112916902       -9.8970213819  MEMB      106             0.0000000000
     13154       106  DOPE      C211          -14.5793910166       -6.0106164784       -7.7610703370  MEMB      106             0.0000000000
     13155       106  DOPE      H11R          -14.9310258034       -6.8891523829       -7.1789630704  MEMB      106             0.0000000000
     13156       106  DOPE      H11S          -15.5191288764       -5.4490223128       -7.9503469074  MEMB      106             0.0000000000
     13157       106  DOPE      C212          -13.5195560878       -5.0784354713       -7.1142785397  MEMB      106             0.0000000000
     13158       106  DOPE      H12R          -13.2219961693       -4.2617684477       -7.8062573171  MEMB      106             0.0000000000
     13159       106  DOPE      H12S          -12.5366000699       -5.5505459801       -6.9016053084  MEMB      106             0.0000000000
     13160       106  DOPE      C213          -13.9674398732       -4.4020484991       -5.8355976033  MEMB      106             0.0000000000
     13161       106  DOPE      H13R          -14.8737451101       -3.7856213807       -6.0171177127  MEMB      106             0.0000000000
     13162       106  DOPE      H13S          -13.2036717553       -3.7303513351       -5.3886057136  MEMB      106             0.0000000000
     13163       106  DOPE      C214          -14.3422928436       -5.4199097155       -4.7068326731  MEMB      106             0.0000000000
     13164       106  DOPE      H14R          -15.0386440050       -6.1677632417       -5.1428725148  MEMB      106             0.0000000000
     13165       106  DOPE      H14S          -14.9873174999       -4.7986083157       -4.0493756190  MEMB      106             0.0000000000
     13166       106  DOPE      C215          -13.1781313375       -6.2109153411       -4.0710746801  MEMB      106             0.0000000000
     13167       106  DOPE      H15R          -12.4044267209       -5.4488837011       -3.8365331034  MEMB      106             0.0000000000
     13168       106  DOPE      H15S          -12.8151295337       -6.8921559529       -4.8701126954  MEMB      106             0.0000000000
     13169       106  DOPE      C216          -13.5044803059       -6.8956628010       -2.7187892246  MEMB      106             0.0000000000
     13170       106  DOPE      H16R          -14.5325354066       -7.3156100915       -2.7514777370  MEMB      106             0.0000000000
     13171       106  DOPE      H16S          -13.4983031129       -6.1504736628       -1.8947890792  MEMB      106             0.0000000000
     13172       106  DOPE      C217          -12.6016548606       -8.0544205354       -2.2611631868  MEMB      106             0.0000000000
     13173       106  DOPE      H17R          -11.5342979212       -7.7596887843       -2.1705899861  MEMB      106             0.0000000000
     13174       106  DOPE      H17S          -12.6051821851       -8.7560019446       -3.1226112583  MEMB      106             0.0000000000
     13175       106  DOPE      C218          -12.9010779300       -8.7455766964       -0.8742119667  MEMB      106             0.0000000000
     13176       106  DOPE      H18R          -13.8918666752       -9.2481198702       -0.8846473546  MEMB      106             0.0000000000
     13177       106  DOPE      H18S          -12.9512726179       -7.9855064711       -0.0654504904  MEMB      106             0.0000000000
     13178       106  DOPE      H18T          -12.2222788860       -9.5967813758       -0.6528454937  MEMB      106             0.0000000000
     13179       106  DOPE      C33            -8.5578558607       -4.3950146571      -13.2040733789  MEMB      106             0.0000000000
     13180       106  DOPE      H3X            -7.9941421167       -3.8426853059      -13.9860447009  MEMB      106             0.0000000000
     13181       106  DOPE      H3Y            -7.8206102422       -4.5732266541      -12.3922663919  MEMB      106             0.0000000000
     13182       106  DOPE      C34            -9.8159296424       -3.5707855830      -12.7644033445  MEMB      106             0.0000000000
     13183       106  DOPE      H4X            -9.3096170103       -2.5825441007      -12.7277020911  MEMB      106             0.0000000000
     13184       106  DOPE      H4Y           -10.6131889407       -3.4850061880      -13.5333901457  MEMB      106             0.0000000000
     13185       106  DOPE      C35           -10.3192770541       -3.9636402705      -11.3487527310  MEMB      106             0.0000000000
     13186       106  DOPE      H5X           -10.7968462280       -4.9445529670      -11.5586542959  MEMB      106             0.0000000000
     13187       106  DOPE      H5Y           -11.0751710808       -3.2356804217      -10.9840342404  MEMB      106             0.0000000000
     13188       106  DOPE      C36            -9.2833594497       -3.9509725382      -10.1307542005  MEMB      106             0.0000000000
     13189       106  DOPE      H6X            -8.9137204357       -2.9100641165      -10.0116010506  MEMB      106             0.0000000000
     13190       106  DOPE      H6Y            -8.5178959096       -4.6642589386      -10.5043974158  MEMB      106             0.0000000000
     13191       106  DOPE      C37            -9.9294185569       -4.4079093950       -8.7545876168  MEMB      106             0.0000000000
     13192       106  DOPE      H7X           -10.5305401593       -3.5898342979       -8.3032257309  MEMB      106             0.0000000000
     13193       106  DOPE      H7Y           -10.5372497739       -5.2993198498       -9.0196343060  MEMB      106             0.0000000000
     13194       106  DOPE      C38            -8.8207894250       -4.5663185597       -7.6544212241  MEMB      106             0.0000000000
     13195       106  DOPE      H8X            -9.2167891814       -4.9072356684       -6.6739722792  MEMB      106             0.0000000000
     13196       106  DOPE      H8Y            -8.2242234470       -3.6655944271       -7.3953347727  MEMB      106             0.0000000000
     13197       106  DOPE      C39            -7.8383741696       -5.6630650599       -7.9617753220  MEMB      106             0.0000000000
     13198       106  DOPE      H9X            -8.0497071926       -6.2972925956       -8.8353281241  MEMB      106             0.0000000000
     13199       106  DOPE      C310           -6.6757772061       -5.8937360192       -7.3186288187  MEMB      106             0.0000000000
     13200       106  DOPE      H10X           -5.9566746102       -6.6199531819       -7.7254450033  MEMB      106             0.0000000000
     13201       106  DOPE      C311           -6.1227502874       -5.1888665396       -6.1236249976  MEMB      106             0.0000000000
     13202       106  DOPE      H11X           -5.5629337988       -4.2716517293       -6.4058373951  MEMB      106             0.0000000000
     13203       106  DOPE      H11Y           -6.9636087865       -4.7807204640       -5.5230470661  MEMB      106             0.0000000000
     13204       106  DOPE      C312           -5.2834114869       -6.1490453207       -5.2346852177  MEMB      106             0.0000000000
     13205       106  DOPE      H12X           -4.3219223526       -5.6614813328       -4.9660939934  MEMB      106             0.0000000000
     13206       106  DOPE      H12Y           -4.8712255356       -6.9163317057       -5.9243915407  MEMB      106             0.0000000000
     13207       106  DOPE      C313           -5.9610761448       -6.6671194789       -4.0393550165  MEMB      106             0.0000000000
     13208       106  DOPE      H13X           -5.9430260112       -5.8301762935       -3.3089296617  MEMB      106             0.0000000000
     13209       106  DOPE      H13Y           -7.0104216786       -6.8052426202       -4.3771668078  MEMB      106             0.0000000000
     13210       106  DOPE      C314           -5.5164515633       -7.9678178964       -3.3459968547  MEMB      106             0.0000000000
     13211       106  DOPE      H14X           -4.4579198449       -7.9422444002       -3.0095787517  MEMB      106             0.0000000000
     13212       106  DOPE      H14Y           -5.4833127222       -8.8108788580       -4.0688182595  MEMB      106             0.0000000000
     13213       106  DOPE      C315           -6.1880723802       -8.2529281468       -2.0104255825  MEMB      106             0.0000000000
     13214       106  DOPE      H15X           -7.2488837053       -8.4719300027       -2.2574850517  MEMB      106             0.0000000000
     13215       106  DOPE      H15Y           -6.0434405735       -7.3866448783       -1.3300170507  MEMB      106             0.0000000000
     13216       106  DOPE      C316           -5.5833704421       -9.5922849746       -1.5896761489  MEMB      106             0.0000000000
     13217       106  DOPE      H16X           -5.4943273725       -9.6643568586       -0.4845977358  MEMB      106             0.0000000000
     13218       106  DOPE      H16Y           -4.6512008308       -9.8153073047       -2.1514951668  MEMB      106             0.0000000000
     13219       106  DOPE      C317           -6.4757303097      -10.9089369709       -1.9063396049  MEMB      106             0.0000000000
     13220       106  DOPE      H17X           -6.6328766669      -11.1131331296       -2.9870485283  MEMB      106             0.0000000000
     13221       106  DOPE      H17Y           -5.9456139083      -11.7441964239       -1.4007328883  MEMB      106             0.0000000000
     13222       106  DOPE      C318           -7.9046580871      -10.8570286217       -1.4660741493  MEMB      106             0.0000000000
     13223       106  DOPE      H18X           -8.4870278187      -10.2585181047       -2.1988441730  MEMB      106             0.0000000000
     13224       106  DOPE      H18Y           -8.2740632196      -11.8918589106       -1.6303501518  MEMB      106             0.0000000000
     13225       106  DOPE      H18Z           -8.1076004816      -10.5825593332       -0.4088140114  MEMB      106             0.0000000000
     13226       107  DOPE      N               8.2858717144       -9.8960972080      -16.6650227577  MEMB      107             0.0000000000
     13227       107  DOPE      HN1             8.1211150788      -10.1948513604      -15.6825762022  MEMB      107             0.0000000000
     13228       107  DOPE      HN2             8.3858944468      -10.6718872178      -17.3504024756  MEMB      107             0.0000000000
     13229       107  DOPE      HN3             9.1188686458       -9.2863552466      -16.5388054127  MEMB      107             0.0000000000
     13230       107  DOPE      C12             7.1809473457       -9.0364030263      -17.3297077615  MEMB      107             0.0000000000
     13231       107  DOPE      H12A            7.0984642772       -8.2539931740      -16.5452636867  MEMB      107             0.0000000000
     13232       107  DOPE      H12B            6.2774490053       -9.6754229506      -17.4280196966  MEMB      107             0.0000000000
     13233       107  DOPE      C11             7.6912326107       -8.5986259584      -18.7153945114  MEMB      107             0.0000000000
     13234       107  DOPE      H11A            6.8028056432       -8.2254104646      -19.2683219559  MEMB      107             0.0000000000
     13235       107  DOPE      H11B            8.0480541045       -9.4577055696      -19.3228330556  MEMB      107             0.0000000000
     13236       107  DOPE      P               8.8767938925       -6.7339842766      -19.9708103428  MEMB      107             0.0000000000
     13237       107  DOPE      O13             8.0499296769       -7.1018412119      -21.1201339228  MEMB      107             0.0000000000
     13238       107  DOPE      O14            10.3723935310       -6.6073385039      -20.1441155805  MEMB      107             0.0000000000
     13239       107  DOPE      O11             8.3790991475       -5.2994163983      -19.4382184080  MEMB      107             0.0000000000
     13240       107  DOPE      O12             8.6362463470       -7.5806169326      -18.6165967151  MEMB      107             0.0000000000
     13241       107  DOPE      C1              8.6941454465       -4.0954030687      -20.0802867401  MEMB      107             0.0000000000
     13242       107  DOPE      HA              7.7947506265       -3.6430446632      -20.5501607951  MEMB      107             0.0000000000
     13243       107  DOPE      HB              9.4659870762       -4.2660257848      -20.8609719164  MEMB      107             0.0000000000
     13244       107  DOPE      C2              9.3385809012       -3.1389214576      -19.0447307011  MEMB      107             0.0000000000
     13245       107  DOPE      HS              9.6892028487       -2.2411629156      -19.5973741720  MEMB      107             0.0000000000
     13246       107  DOPE      O21            10.3269351618       -3.7459380942      -18.1891297601  MEMB      107             0.0000000000
     13247       107  DOPE      C21            11.5285971031       -4.0120065601      -18.7227673691  MEMB      107             0.0000000000
     13248       107  DOPE      O22            11.9678138049       -3.6393542788      -19.7634993525  MEMB      107             0.0000000000
     13249       107  DOPE      C22            12.1748050980       -4.9697063823      -17.6611107727  MEMB      107             0.0000000000
     13250       107  DOPE      H2R            12.9982204204       -5.6252010066      -18.0169688490  MEMB      107             0.0000000000
     13251       107  DOPE      H2S            11.3792878509       -5.6473351451      -17.2838938283  MEMB      107             0.0000000000
     13252       107  DOPE      C3              8.3010325093       -2.5559216530      -18.1239086635  MEMB      107             0.0000000000
     13253       107  DOPE      HX              7.4290551086       -2.0642599458      -18.6058269285  MEMB      107             0.0000000000
     13254       107  DOPE      HY              8.8682217317       -1.7828513213      -17.5626782721  MEMB      107             0.0000000000
     13255       107  DOPE      O31             7.6600963946       -3.5556583395      -17.4186724555  MEMB      107             0.0000000000
     13256       107  DOPE      C31             7.6931762207       -3.4414080257      -16.0671889168  MEMB      107             0.0000000000
     13257       107  DOPE      O32             8.0522230439       -2.4287202123      -15.4710439320  MEMB      107             0.0000000000
     13258       107  DOPE      C32             7.3104913427       -4.8865782595      -15.4635684168  MEMB      107             0.0000000000
     13259       107  DOPE      H2X             6.2878212288       -5.2403773447      -15.7151497648  MEMB      107             0.0000000000
     13260       107  DOPE      H2Y             8.0323308736       -5.6405298625      -15.8441283317  MEMB      107             0.0000000000
     13261       107  DOPE      C23            12.5946940362       -3.9939547078      -16.4896517847  MEMB      107             0.0000000000
     13262       107  DOPE      H3R            11.7010486945       -3.5714488681      -15.9824952760  MEMB      107             0.0000000000
     13263       107  DOPE      H3S            13.2107804399       -3.1529232155      -16.8736100607  MEMB      107             0.0000000000
     13264       107  DOPE      C24            13.4176878973       -4.6529537124      -15.3069291330  MEMB      107             0.0000000000
     13265       107  DOPE      H4R            13.3824978154       -3.9334568730      -14.4611116609  MEMB      107             0.0000000000
     13266       107  DOPE      H4S            14.4415002029       -4.9704270900      -15.5990592612  MEMB      107             0.0000000000
     13267       107  DOPE      C25            12.7367487116       -5.9589586163      -14.7765175236  MEMB      107             0.0000000000
     13268       107  DOPE      H5R            13.4423813926       -6.4031041870      -14.0422572534  MEMB      107             0.0000000000
     13269       107  DOPE      H5S            12.7867468529       -6.7758191611      -15.5278894692  MEMB      107             0.0000000000
     13270       107  DOPE      C26            11.2686646981       -5.7574201465      -14.2644794995  MEMB      107             0.0000000000
     13271       107  DOPE      H6R            10.6222818772       -6.1148216740      -15.0944039531  MEMB      107             0.0000000000
     13272       107  DOPE      H6S            11.0361601281       -4.6921321603      -14.0513505634  MEMB      107             0.0000000000
     13273       107  DOPE      C27            11.1582788609       -6.6333145490      -12.9726539315  MEMB      107             0.0000000000
     13274       107  DOPE      H7R            11.4802100430       -7.6840311490      -13.1359815425  MEMB      107             0.0000000000
     13275       107  DOPE      H7S            10.0552669320       -6.6657483857      -12.8436825483  MEMB      107             0.0000000000
     13276       107  DOPE      C28            11.7285913521       -5.9482941772      -11.7281232276  MEMB      107             0.0000000000
     13277       107  DOPE      H8R            11.6436169187       -4.8506289931      -11.8772257907  MEMB      107             0.0000000000
     13278       107  DOPE      H8S            12.8303970162       -6.0861349728      -11.6914484200  MEMB      107             0.0000000000
     13279       107  DOPE      C29            11.2971383851       -6.5320580145      -10.4335100569  MEMB      107             0.0000000000
     13280       107  DOPE      H9R            10.8792626490       -7.5487149970      -10.3912183325  MEMB      107             0.0000000000
     13281       107  DOPE      C210           11.3335726492       -5.9648226936       -9.2277352656  MEMB      107             0.0000000000
     13282       107  DOPE      H10R           11.1036336101       -6.5919324795       -8.3537431054  MEMB      107             0.0000000000
     13283       107  DOPE      C211           11.8173019909       -4.5768751977       -8.9465461556  MEMB      107             0.0000000000
     13284       107  DOPE      H11R           12.3069795237       -4.1924302706       -9.8667305905  MEMB      107             0.0000000000
     13285       107  DOPE      H11S           12.5911642259       -4.6586032026       -8.1535914671  MEMB      107             0.0000000000
     13286       107  DOPE      C212           10.7780408266       -3.5423970227       -8.4671109608  MEMB      107             0.0000000000
     13287       107  DOPE      H12R            9.8780817472       -3.6085705634       -9.1151977148  MEMB      107             0.0000000000
     13288       107  DOPE      H12S           11.2427827760       -2.5364648381       -8.5473378310  MEMB      107             0.0000000000
     13289       107  DOPE      C213           10.2089226673       -3.8171293941       -6.9726821938  MEMB      107             0.0000000000
     13290       107  DOPE      H13R            9.7479753057       -4.8274519351       -7.0058032691  MEMB      107             0.0000000000
     13291       107  DOPE      H13S            9.3808680701       -3.0879580773       -6.8424670529  MEMB      107             0.0000000000
     13292       107  DOPE      C214           11.2338725223       -3.6933859279       -5.8216314441  MEMB      107             0.0000000000
     13293       107  DOPE      H14R           11.7949710522       -2.7344906451       -5.8246790171  MEMB      107             0.0000000000
     13294       107  DOPE      H14S           12.0396413689       -4.4561900385       -5.8780890056  MEMB      107             0.0000000000
     13295       107  DOPE      C215           10.5506197940       -3.9084483781       -4.5184694916  MEMB      107             0.0000000000
     13296       107  DOPE      H15R           10.0576512039       -4.9040585841       -4.5264245135  MEMB      107             0.0000000000
     13297       107  DOPE      H15S            9.8760172017       -3.0745678218       -4.2288566699  MEMB      107             0.0000000000
     13298       107  DOPE      C216           11.5422062362       -4.1377549409       -3.3641842175  MEMB      107             0.0000000000
     13299       107  DOPE      H16R           12.1545249149       -5.0604081571       -3.4541710195  MEMB      107             0.0000000000
     13300       107  DOPE      H16S           10.9396562856       -4.3322000927       -2.4512515449  MEMB      107             0.0000000000
     13301       107  DOPE      C217           12.4746816342       -2.8910971211       -3.0898248997  MEMB      107             0.0000000000
     13302       107  DOPE      H17R           11.9552136999       -1.9092457137       -3.1108513890  MEMB      107             0.0000000000
     13303       107  DOPE      H17S           13.2700647261       -3.0331946058       -3.8523834848  MEMB      107             0.0000000000
     13304       107  DOPE      C218           13.3366264918       -3.0478482929       -1.8476041152  MEMB      107             0.0000000000
     13305       107  DOPE      H18R           12.6523345609       -2.8757410839       -0.9894405572  MEMB      107             0.0000000000
     13306       107  DOPE      H18S           14.2195873173       -2.3807786333       -1.9461908491  MEMB      107             0.0000000000
     13307       107  DOPE      H18T           13.5735327450       -4.1326879890       -1.8112828635  MEMB      107             0.0000000000
     13308       107  DOPE      C33             7.5745456942       -4.8530293769      -13.9385294746  MEMB      107             0.0000000000
     13309       107  DOPE      H3X             8.5029504411       -4.3082924908      -13.6634889294  MEMB      107             0.0000000000
     13310       107  DOPE      H3Y             7.7577507065       -5.9396910694      -13.7973798707  MEMB      107             0.0000000000
     13311       107  DOPE      C34             6.3682085945       -4.4046492789      -13.1345297240  MEMB      107             0.0000000000
     13312       107  DOPE      H4X             6.0469575422       -3.4106858668      -13.5128887391  MEMB      107             0.0000000000
     13313       107  DOPE      H4Y             5.6170775795       -5.1971438647      -13.3396529042  MEMB      107             0.0000000000
     13314       107  DOPE      C35             6.5604819599       -4.2774969030      -11.6123352110  MEMB      107             0.0000000000
     13315       107  DOPE      H5X             5.6595684889       -4.3299371909      -10.9643178865  MEMB      107             0.0000000000
     13316       107  DOPE      H5Y             7.0948960585       -3.3137282196      -11.4713653631  MEMB      107             0.0000000000
     13317       107  DOPE      C36             7.5761938675       -5.3768408869      -10.9906860608  MEMB      107             0.0000000000
     13318       107  DOPE      H6X             7.8708625596       -4.8909434263      -10.0360159710  MEMB      107             0.0000000000
     13319       107  DOPE      H6Y             8.4420400355       -5.6910373853      -11.6119042971  MEMB      107             0.0000000000
     13320       107  DOPE      C37             6.8667624487       -6.6568348350      -10.3577262846  MEMB      107             0.0000000000
     13321       107  DOPE      H7X             6.0861601190       -6.2934887909       -9.6556145867  MEMB      107             0.0000000000
     13322       107  DOPE      H7Y             6.2243474786       -7.1340826644      -11.1283478775  MEMB      107             0.0000000000
     13323       107  DOPE      C38             7.8332254074       -7.8386297810       -9.8371506426  MEMB      107             0.0000000000
     13324       107  DOPE      H8X             8.3827893400       -7.3448539437       -9.0074007100  MEMB      107             0.0000000000
     13325       107  DOPE      H8Y             8.6129159910       -7.9038440854      -10.6259160386  MEMB      107             0.0000000000
     13326       107  DOPE      C39             7.0159699413       -9.0943031860       -9.5279658776  MEMB      107             0.0000000000
     13327       107  DOPE      H9X             5.9196692159       -9.0068065550       -9.5063150723  MEMB      107             0.0000000000
     13328       107  DOPE      C310            7.5586654614      -10.2580406193       -9.1785661753  MEMB      107             0.0000000000
     13329       107  DOPE      H10X            6.8885389417      -11.0946743062       -8.9316377297  MEMB      107             0.0000000000
     13330       107  DOPE      C311            9.0391791078      -10.5366199688       -9.0752097694  MEMB      107             0.0000000000
     13331       107  DOPE      H11X            9.2035802118      -11.5251180484       -9.5549652749  MEMB      107             0.0000000000
     13332       107  DOPE      H11Y            9.6947567646       -9.8910557517       -9.6979341819  MEMB      107             0.0000000000
     13333       107  DOPE      C312            9.5325227833      -10.5049303087       -7.6178600213  MEMB      107             0.0000000000
     13334       107  DOPE      H12X           10.5834194985      -10.8628839850       -7.5753613265  MEMB      107             0.0000000000
     13335       107  DOPE      H12Y            8.8625881003      -11.2353371247       -7.1158494243  MEMB      107             0.0000000000
     13336       107  DOPE      C313            9.2558946788       -9.1959548417       -6.8093522175  MEMB      107             0.0000000000
     13337       107  DOPE      H13X            9.7111331174       -8.3483232423       -7.3648699935  MEMB      107             0.0000000000
     13338       107  DOPE      H13Y            8.1877172243       -8.9057404855       -6.7139914001  MEMB      107             0.0000000000
     13339       107  DOPE      C314            9.7819360981       -9.2922698373       -5.3739857922  MEMB      107             0.0000000000
     13340       107  DOPE      H14X           10.8676343224       -9.5263411892       -5.4021157393  MEMB      107             0.0000000000
     13341       107  DOPE      H14Y            9.2838453291      -10.0944491434       -4.7885492154  MEMB      107             0.0000000000
     13342       107  DOPE      C315            9.6751252915       -8.0056269383       -4.5460267795  MEMB      107             0.0000000000
     13343       107  DOPE      H15X            8.6314066239       -7.6249847269       -4.5368728450  MEMB      107             0.0000000000
     13344       107  DOPE      H15Y           10.2539309081       -7.2406884606       -5.1065394733  MEMB      107             0.0000000000
     13345       107  DOPE      C316           10.1398073596       -8.0086616625       -3.1304087495  MEMB      107             0.0000000000
     13346       107  DOPE      H16X            9.9368558299       -6.9887155022       -2.7394593904  MEMB      107             0.0000000000
     13347       107  DOPE      H16Y           11.2455068012       -8.1137061569       -3.1036599030  MEMB      107             0.0000000000
     13348       107  DOPE      C317            9.5224565979       -9.0522967900       -2.1727463649  MEMB      107             0.0000000000
     13349       107  DOPE      H17X            9.9170196611      -10.0531216664       -2.4502176646  MEMB      107             0.0000000000
     13350       107  DOPE      H17Y            9.9432370989       -8.9642143914       -1.1482914588  MEMB      107             0.0000000000
     13351       107  DOPE      C318            7.9521164668       -9.2916944796       -2.2083060315  MEMB      107             0.0000000000
     13352       107  DOPE      H18X            7.6286796319       -9.4890393491       -3.2527037218  MEMB      107             0.0000000000
     13353       107  DOPE      H18Y            7.6463024159      -10.1280910342       -1.5440473464  MEMB      107             0.0000000000
     13354       107  DOPE      H18Z            7.4558190915       -8.3781086758       -1.8166803399  MEMB      107             0.0000000000
     13355       108  23SM      N               9.7844594034        7.3177155768      -28.0304638547  MEMB      108             0.0000000000
     13356       108  23SM      C15            10.8065897018        8.4512130747      -28.3026190107  MEMB      108             0.0000000000
     13357       108  23SM      H15A           10.3290146870        9.2474473881      -28.8542828217  MEMB      108             0.0000000000
     13358       108  23SM      H15B           11.5502083368        8.1624047727      -29.0306445086  MEMB      108             0.0000000000
     13359       108  23SM      H15C           11.1369257531        8.8057116485      -27.3374201686  MEMB      108             0.0000000000
     13360       108  23SM      C14             9.1784727110        6.8907221042      -29.3633623724  MEMB      108             0.0000000000
     13361       108  23SM      H14A            8.8924593164        7.8737813365      -29.7071511768  MEMB      108             0.0000000000
     13362       108  23SM      H14B            8.3636836218        6.2139832176      -29.1523097176  MEMB      108             0.0000000000
     13363       108  23SM      H14C            9.9641234004        6.4542462815      -29.9622292348  MEMB      108             0.0000000000
     13364       108  23SM      C13            10.4223425876        6.1243372646      -27.4135653832  MEMB      108             0.0000000000
     13365       108  23SM      H13A           11.3394771143        5.7976816585      -27.8810698796  MEMB      108             0.0000000000
     13366       108  23SM      H13B            9.6831601306        5.3377014154      -27.3787339200  MEMB      108             0.0000000000
     13367       108  23SM      H13C           10.6461349710        6.4943782266      -26.4239256980  MEMB      108             0.0000000000
     13368       108  23SM      C12             8.6115429810        7.6933162211      -27.1361129238  MEMB      108             0.0000000000
     13369       108  23SM      H12A            7.9175612739        6.8706592406      -27.0465312392  MEMB      108             0.0000000000
     13370       108  23SM      H12B            8.0476527597        8.4967875760      -27.5865144542  MEMB      108             0.0000000000
     13371       108  23SM      C11             8.8530633626        8.2802458269      -25.7294555320  MEMB      108             0.0000000000
     13372       108  23SM      H11A            7.9600415557        8.6252535428      -25.1657155329  MEMB      108             0.0000000000
     13373       108  23SM      H11B            9.4858019760        9.1897844522      -25.8113225325  MEMB      108             0.0000000000
     13374       108  23SM      P               8.8692729912        6.2270041163      -24.0503126771  MEMB      108             0.0000000000
     13375       108  23SM      O13             7.5394969500        6.0087733726      -24.5755181546  MEMB      108             0.0000000000
     13376       108  23SM      O14             9.8018716572        5.1218492481      -23.9344901425  MEMB      108             0.0000000000
     13377       108  23SM      O11             8.7186925436        6.8348993913      -22.6385967005  MEMB      108             0.0000000000
     13378       108  23SM      O12             9.5005493863        7.3924278191      -24.8255032523  MEMB      108             0.0000000000
     13379       108  23SM      C1S             9.5103173800        7.5960352748      -21.7823426811  MEMB      108             0.0000000000
     13380       108  23SM      H1S             9.0527977749        8.5701883086      -21.5066207289  MEMB      108             0.0000000000
     13381       108  23SM      H1T            10.4027327634        7.9770921024      -22.3233708997  MEMB      108             0.0000000000
     13382       108  23SM      NF             10.8797994536        5.8085051648      -20.7238869216  MEMB      108             0.0000000000
     13383       108  23SM      HNF            10.7274127835        4.8644585934      -20.4418176101  MEMB      108             0.0000000000
     13384       108  23SM      C2S             9.8671029953        6.8549493615      -20.5259666556  MEMB      108             0.0000000000
     13385       108  23SM      H2S            10.3182571225        7.6338702979      -19.8747651285  MEMB      108             0.0000000000
     13386       108  23SM      C3S             8.5726170074        6.2758609939      -19.9233478603  MEMB      108             0.0000000000
     13387       108  23SM      H3S             8.1306884139        5.6999801747      -20.7644076119  MEMB      108             0.0000000000
     13388       108  23SM      O3              7.7114591950        7.3958760795      -19.7128100202  MEMB      108             0.0000000000
     13389       108  23SM      HO3             8.0898835273        8.0788312600      -20.2713504645  MEMB      108             0.0000000000
     13390       108  23SM      C4S             8.7810786485        5.5823840970      -18.5886353839  MEMB      108             0.0000000000
     13391       108  23SM      H4S             9.3205806216        6.2048153066      -17.8595832242  MEMB      108             0.0000000000
     13392       108  23SM      C5S             8.6290774965        4.2777292601      -18.4411195894  MEMB      108             0.0000000000
     13393       108  23SM      H5S             8.3634860614        3.8236275269      -19.4071696209  MEMB      108             0.0000000000
     13394       108  23SM      C6S             8.8157640352        3.4947953940      -17.1463053039  MEMB      108             0.0000000000
     13395       108  23SM      H6S             9.8578440111        3.1137426590      -17.0898344657  MEMB      108             0.0000000000
     13396       108  23SM      H6T             8.2375874683        2.5491038519      -17.2218071968  MEMB      108             0.0000000000
     13397       108  23SM      C7S             8.7950577409        4.1305562107      -15.7185315210  MEMB      108             0.0000000000
     13398       108  23SM      H7S             7.8373265310        4.6750798369      -15.5751229553  MEMB      108             0.0000000000
     13399       108  23SM      H7T             9.5995863959        4.8961492825      -15.6881715552  MEMB      108             0.0000000000
     13400       108  23SM      C8S             8.8911947863        3.0843289455      -14.5486151351  MEMB      108             0.0000000000
     13401       108  23SM      H8S             9.8040721356        2.4598726614      -14.6536401878  MEMB      108             0.0000000000
     13402       108  23SM      H8T             8.0131044732        2.4038068991      -14.5615662241  MEMB      108             0.0000000000
     13403       108  23SM      C9S             8.9640211608        3.8192207626      -13.1524079063  MEMB      108             0.0000000000
     13404       108  23SM      H9S             8.2490057735        4.6661221576      -13.2287746972  MEMB      108             0.0000000000
     13405       108  23SM      H9T            10.0051484412        4.1968008905      -13.0640425347  MEMB      108             0.0000000000
     13406       108  23SM      C10S            8.6879443270        2.9729761084      -11.9373902798  MEMB      108             0.0000000000
     13407       108  23SM      H10S            8.8667295533        1.9352962678      -12.2917595204  MEMB      108             0.0000000000
     13408       108  23SM      H10T            7.6108497629        2.9459224000      -11.6663620671  MEMB      108             0.0000000000
     13409       108  23SM      C11S            9.5871937867        3.1813789595      -10.6881380934  MEMB      108             0.0000000000
     13410       108  23SM      H11S            9.3909081649        4.2147465520      -10.3304447569  MEMB      108             0.0000000000
     13411       108  23SM      H11T           10.6886755456        3.1925042389      -10.8328277589  MEMB      108             0.0000000000
     13412       108  23SM      C12S            9.2699717912        2.2270268213       -9.5717211659  MEMB      108             0.0000000000
     13413       108  23SM      H12S            9.5232353352        1.1629067060       -9.7662134124  MEMB      108             0.0000000000
     13414       108  23SM      H12T            8.1619649200        2.2535053211       -9.4946459246  MEMB      108             0.0000000000
     13415       108  23SM      C13S            9.8670708295        2.6901296542       -8.1989829689  MEMB      108             0.0000000000
     13416       108  23SM      H13S            9.5687706401        3.7221844252       -7.9157843132  MEMB      108             0.0000000000
     13417       108  23SM      H13T           10.9710522467        2.7461262280       -8.3103856716  MEMB      108             0.0000000000
     13418       108  23SM      C14S            9.5404173653        1.7788287614       -7.0005826761  MEMB      108             0.0000000000
     13419       108  23SM      H14S           10.0733624312        0.8088758764       -7.0979586061  MEMB      108             0.0000000000
     13420       108  23SM      H14T            8.4817863844        1.4418035025       -6.9946651019  MEMB      108             0.0000000000
     13421       108  23SM      C15S            9.8229192852        2.4618746686       -5.5977619286  MEMB      108             0.0000000000
     13422       108  23SM      H15S            9.3045218334        1.8829184849       -4.8037869619  MEMB      108             0.0000000000
     13423       108  23SM      H15T            9.3841486177        3.4778073458       -5.4993645917  MEMB      108             0.0000000000
     13424       108  23SM      C16S           11.2247369804        2.4388929579       -5.1381979271  MEMB      108             0.0000000000
     13425       108  23SM      H16S           11.8057594251        3.2042688567       -5.6958123814  MEMB      108             0.0000000000
     13426       108  23SM      H16T           11.6994199010        1.4456214551       -5.2878918182  MEMB      108             0.0000000000
     13427       108  23SM      C17S           11.3163016445        2.7917346866       -3.5903523685  MEMB      108             0.0000000000
     13428       108  23SM      H17S           10.6848132230        2.1165097396       -2.9742233819  MEMB      108             0.0000000000
     13429       108  23SM      H17T           10.8459091804        3.7967455868       -3.5355348231  MEMB      108             0.0000000000
     13430       108  23SM      C18S           12.7941010849        2.8902392006       -3.1017491984  MEMB      108             0.0000000000
     13431       108  23SM      H18S           13.3282196949        3.7118927876       -3.6251244943  MEMB      108             0.0000000000
     13432       108  23SM      H18T           13.1462957741        1.8403512760       -3.0122193223  MEMB      108             0.0000000000
     13433       108  23SM      H18U           12.7815418005        3.2404655748       -2.0474693850  MEMB      108             0.0000000000
     13434       108  23SM      C1F            12.1230033172        6.0687614648      -21.2518462231  MEMB      108             0.0000000000
     13435       108  23SM      OF             12.5093556392        7.2042875881      -21.5914433544  MEMB      108             0.0000000000
     13436       108  23SM      C2F            13.0535997722        4.8535282945      -21.4356460691  MEMB      108             0.0000000000
     13437       108  23SM      H2F            13.7822315720        5.0932172518      -22.2393660183  MEMB      108             0.0000000000
     13438       108  23SM      H2G            12.5189410879        3.9265647089      -21.7343093467  MEMB      108             0.0000000000
     13439       108  23SM      C3F            13.7348365665        4.6270370611      -20.1265253959  MEMB      108             0.0000000000
     13440       108  23SM      H3F            13.9031714639        5.5810153204      -19.5825493753  MEMB      108             0.0000000000
     13441       108  23SM      H3G            14.6899147222        4.1605806553      -20.4498911517  MEMB      108             0.0000000000
     13442       108  23SM      C4F            12.8965464552        3.6892350267      -19.2359206256  MEMB      108             0.0000000000
     13443       108  23SM      H4F            12.5198689072        2.7620470382      -19.7183704390  MEMB      108             0.0000000000
     13444       108  23SM      H4G            11.9909460094        4.2526327123      -18.9248067957  MEMB      108             0.0000000000
     13445       108  23SM      C5F            13.4554294962        3.2679286473      -17.8459201806  MEMB      108             0.0000000000
     13446       108  23SM      H5F            14.4642048559        2.8158374082      -17.9568552737  MEMB      108             0.0000000000
     13447       108  23SM      H5G            12.7687132544        2.5333025382      -17.3736205536  MEMB      108             0.0000000000
     13448       108  23SM      C6F            13.3801217929        4.3093830805      -16.7366831466  MEMB      108             0.0000000000
     13449       108  23SM      H6F            12.6014037543        5.0707096469      -16.9564590234  MEMB      108             0.0000000000
     13450       108  23SM      H6G            14.3348843769        4.8687212819      -16.8361322016  MEMB      108             0.0000000000
     13451       108  23SM      C7F            13.3472141601        3.6345998809      -15.4116352275  MEMB      108             0.0000000000
     13452       108  23SM      H7F            14.1895706927        2.9273493628      -15.2549401922  MEMB      108             0.0000000000
     13453       108  23SM      H7G            12.4046005961        3.0465989818      -15.4190895964  MEMB      108             0.0000000000
     13454       108  23SM      C8F            13.2702029407        4.7761584444      -14.4451256465  MEMB      108             0.0000000000
     13455       108  23SM      H8F            12.3492936227        5.3916296473      -14.5313913553  MEMB      108             0.0000000000
     13456       108  23SM      H8G            14.2092597598        5.2992535306      -14.7259544797  MEMB      108             0.0000000000
     13457       108  23SM      C9F            13.3146143730        4.2453956384      -12.9873659719  MEMB      108             0.0000000000
     13458       108  23SM      H9F            14.0496540526        3.4130221048      -12.9528375129  MEMB      108             0.0000000000
     13459       108  23SM      H9G            12.3803621609        3.7560687784      -12.6380046348  MEMB      108             0.0000000000
     13460       108  23SM      C10F           13.7744167019        5.3441799765      -12.0606093423  MEMB      108             0.0000000000
     13461       108  23SM      H10F           14.8009121299        5.6857616083      -12.3134936276  MEMB      108             0.0000000000
     13462       108  23SM      H10G           13.8991126969        4.8998474341      -11.0499960167  MEMB      108             0.0000000000
     13463       108  23SM      C11F           12.8954225904        6.6406862474      -11.8929513765  MEMB      108             0.0000000000
     13464       108  23SM      H11F           12.6259500697        6.9243605303      -12.9327753816  MEMB      108             0.0000000000
     13465       108  23SM      H11G           13.5254920209        7.5072623334      -11.5990471553  MEMB      108             0.0000000000
     13466       108  23SM      C12F           11.6337173638        6.5141487145      -11.0406159078  MEMB      108             0.0000000000
     13467       108  23SM      H12F           11.0245924799        5.6854560368      -11.4608013368  MEMB      108             0.0000000000
     13468       108  23SM      H12G           10.9753459285        7.4030902760      -11.1438186569  MEMB      108             0.0000000000
     13469       108  23SM      C13F           11.9413794805        6.2584365233       -9.5902480006  MEMB      108             0.0000000000
     13470       108  23SM      H13F           12.7854254340        6.8893259246       -9.2382726645  MEMB      108             0.0000000000
     13471       108  23SM      H13G           12.2434454103        5.1895243572       -9.5677880557  MEMB      108             0.0000000000
     13472       108  23SM      C14F           10.7563747229        6.4723615198       -8.6483103745  MEMB      108             0.0000000000
     13473       108  23SM      H14F            9.9340747379        5.7635895836       -8.8845000250  MEMB      108             0.0000000000
     13474       108  23SM      H14G           10.3950604354        7.5033914812       -8.8501768337  MEMB      108             0.0000000000
     13475       108  23SM      C15F           11.0206976095        6.2439940037       -7.1192701656  MEMB      108             0.0000000000
     13476       108  23SM      H15F           11.0367324588        5.1445998632       -6.9599090535  MEMB      108             0.0000000000
     13477       108  23SM      H15G           10.1267669429        6.6792483749       -6.6235258619  MEMB      108             0.0000000000
     13478       108  23SM      C16F           12.2198990068        6.9701759123       -6.5570501663  MEMB      108             0.0000000000
     13479       108  23SM      H16F           12.3966915502        7.8801649733       -7.1694107943  MEMB      108             0.0000000000
     13480       108  23SM      H16G           13.1426990544        6.3624677374       -6.6730317299  MEMB      108             0.0000000000
     13481       108  23SM      C17F           11.9985820475        7.6214335608       -5.0798095532  MEMB      108             0.0000000000
     13482       108  23SM      H17F           11.2330646940        8.4238871384       -5.1459334783  MEMB      108             0.0000000000
     13483       108  23SM      H17G           12.9389154300        8.1454981245       -4.8051267299  MEMB      108             0.0000000000
     13484       108  23SM      C18F           11.7628415501        6.5830032329       -3.9019775616  MEMB      108             0.0000000000
     13485       108  23SM      H18F           12.6208699129        5.8779489433       -3.8702557780  MEMB      108             0.0000000000
     13486       108  23SM      H18G           10.7846377112        6.1186092791       -4.1505279273  MEMB      108             0.0000000000
     13487       108  23SM      C19F           11.5355700229        7.1197668976       -2.5054005100  MEMB      108             0.0000000000
     13488       108  23SM      H19F           12.3448659890        7.8040751344       -2.1721097462  MEMB      108             0.0000000000
     13489       108  23SM      H19G           11.5463063026        6.2874393774       -1.7695780906  MEMB      108             0.0000000000
     13490       108  23SM      C20F           10.2689143638        7.9388666665       -2.2119631323  MEMB      108             0.0000000000
     13491       108  23SM      H20F            9.3651761907        7.3556385047       -2.4902129649  MEMB      108             0.0000000000
     13492       108  23SM      H20G           10.4288777283        8.8534870399       -2.8220468979  MEMB      108             0.0000000000
     13493       108  23SM      C21F            9.9615591443        8.2422311677       -0.7131188246  MEMB      108             0.0000000000
     13494       108  23SM      H21F            8.9638365044        8.7308877806       -0.7223550126  MEMB      108             0.0000000000
     13495       108  23SM      H21G           10.5137780673        9.0860966436       -0.2470012559  MEMB      108             0.0000000000
     13496       108  23SM      C22F            9.7123945462        7.1036463067        0.3403231278  MEMB      108             0.0000000000
     13497       108  23SM      H22F           10.5424751195        6.3845052017        0.1726232356  MEMB      108             0.0000000000
     13498       108  23SM      H22G            8.7740619255        6.5459260367        0.1334398662  MEMB      108             0.0000000000
     13499       108  23SM      C23F            9.7680435690        7.6362926919        1.8038381202  MEMB      108             0.0000000000
     13500       108  23SM      H23F           10.7949876439        8.0400264843        1.9330894239  MEMB      108             0.0000000000
     13501       108  23SM      H23G            9.5741777644        6.7743273388        2.4774496750  MEMB      108             0.0000000000
     13502       108  23SM      H23H            8.9166929435        8.3256608906        1.9890255482  MEMB      108             0.0000000000
     13503       109  CHL1      C3            -11.9204649917       -0.4081658482      -17.3134150000  MEMB      109             0.0000000000
     13504       109  CHL1      H3            -11.0584728945       -0.9997612346      -16.9375250000  MEMB      109             0.0000000000
     13505       109  CHL1      O3            -11.9702808083       -0.4507678178      -18.6865850000  MEMB      109             0.0000000000
     13506       109  CHL1      H3'           -12.8857155132       -0.2431343964      -18.8877450000  MEMB      109             0.0000000000
     13507       109  CHL1      C4            -13.2444619320       -0.9595796447      -16.7056950000  MEMB      109             0.0000000000
     13508       109  CHL1      H4A           -14.1367486054       -0.5349088774      -17.2134350000  MEMB      109             0.0000000000
     13509       109  CHL1      H4B           -13.3503118251       -2.0022074310      -17.0745450000  MEMB      109             0.0000000000
     13510       109  CHL1      C5            -13.2744155860       -0.7903381846      -15.2016250000  MEMB      109             0.0000000000
     13511       109  CHL1      C6            -13.5921061248       -1.8423035564      -14.3909150000  MEMB      109             0.0000000000
     13512       109  CHL1      H6            -13.7953940288       -2.8113007918      -14.8702050000  MEMB      109             0.0000000000
     13513       109  CHL1      C7            -13.5471404989       -1.8656350734      -12.8975450000  MEMB      109             0.0000000000
     13514       109  CHL1      H7A           -14.4820620618       -2.3337606258      -12.5219050000  MEMB      109             0.0000000000
     13515       109  CHL1      H7B           -12.7355049053       -2.4585870156      -12.4242950000  MEMB      109             0.0000000000
     13516       109  CHL1      C8            -13.4789710020       -0.4836722576      -12.2795850000  MEMB      109             0.0000000000
     13517       109  CHL1      H8            -14.5236373852       -0.1094519703      -12.3338550000  MEMB      109             0.0000000000
     13518       109  CHL1      C14           -13.0992203853       -0.4615696666      -10.7790450000  MEMB      109             0.0000000000
     13519       109  CHL1      H14           -12.0584958514       -0.8504063428      -10.7836650000  MEMB      109             0.0000000000
     13520       109  CHL1      C15           -13.8709217091       -1.3044832362       -9.8666250000  MEMB      109             0.0000000000
     13521       109  CHL1      H15A          -14.9469009176       -1.1017439885      -10.0550150000  MEMB      109             0.0000000000
     13522       109  CHL1      H15B          -13.7471618590       -2.4046825288       -9.9591650000  MEMB      109             0.0000000000
     13523       109  CHL1      C16           -13.5393026533       -0.8203122829       -8.4383550000  MEMB      109             0.0000000000
     13524       109  CHL1      H16A          -14.4846800414       -0.5168025708       -7.9398950000  MEMB      109             0.0000000000
     13525       109  CHL1      H16B          -13.0458170481       -1.5408779662       -7.7516450000  MEMB      109             0.0000000000
     13526       109  CHL1      C17           -12.5877381188        0.3858122796       -8.6084650000  MEMB      109             0.0000000000
     13527       109  CHL1      H17           -11.5814428150       -0.0843325550       -8.5829650000  MEMB      109             0.0000000000
     13528       109  CHL1      C13           -12.8919453355        0.8840368273      -10.0654850000  MEMB      109             0.0000000000
     13529       109  CHL1      C18           -14.1139486058        1.6966850778      -10.1119850000  MEMB      109             0.0000000000
     13530       109  CHL1      H18A          -14.9321220381        1.2517959729       -9.5061850000  MEMB      109             0.0000000000
     13531       109  CHL1      H18B          -13.8061725315        2.6461560039       -9.6240350000  MEMB      109             0.0000000000
     13532       109  CHL1      H18C          -14.5112034691        1.8295053836      -11.1410050000  MEMB      109             0.0000000000
     13533       109  CHL1      C12           -11.8041866507        1.5750985246      -10.9001350000  MEMB      109             0.0000000000
     13534       109  CHL1      H12A          -11.5030032248        2.5653664651      -10.4964250000  MEMB      109             0.0000000000
     13535       109  CHL1      H12B          -10.9137157750        0.9148012745      -10.8267150000  MEMB      109             0.0000000000
     13536       109  CHL1      C11           -12.0859434651        1.7307510559      -12.4026550000  MEMB      109             0.0000000000
     13537       109  CHL1      H11A          -12.9378560726        2.4431617741      -12.4349150000  MEMB      109             0.0000000000
     13538       109  CHL1      H11B          -11.1673199926        2.1181037791      -12.8929650000  MEMB      109             0.0000000000
     13539       109  CHL1      C9            -12.4432508218        0.3602423070      -13.0833750000  MEMB      109             0.0000000000
     13540       109  CHL1      H9            -11.4449521126       -0.0779159011      -12.8695050000  MEMB      109             0.0000000000
     13541       109  CHL1      C10           -12.7859284933        0.5167148249      -14.6264150000  MEMB      109             0.0000000000
     13542       109  CHL1      C19           -14.0240601554        1.5107545201      -14.7115750000  MEMB      109             0.0000000000
     13543       109  CHL1      H19A          -14.9914864288        1.1199153332      -14.3299150000  MEMB      109             0.0000000000
     13544       109  CHL1      H19B          -13.8262945735        2.5019560267      -14.2503650000  MEMB      109             0.0000000000
     13545       109  CHL1      H19C          -14.1669066229        1.7376206422      -15.7897450000  MEMB      109             0.0000000000
     13546       109  CHL1      C1            -11.6071600361        1.1552116841      -15.3863750000  MEMB      109             0.0000000000
     13547       109  CHL1      H1A           -11.6572554767        2.2285051171      -15.1037950000  MEMB      109             0.0000000000
     13548       109  CHL1      H1B           -10.6229852755        0.8364336522      -14.9813050000  MEMB      109             0.0000000000
     13549       109  CHL1      C2            -11.7479419994        1.1249574531      -16.9238250000  MEMB      109             0.0000000000
     13550       109  CHL1      H2A           -10.8878604326        1.5825358788      -17.4578650000  MEMB      109             0.0000000000
     13551       109  CHL1      H2B           -12.7020860062        1.6532077644      -17.1357050000  MEMB      109             0.0000000000
     13552       109  CHL1      C20           -12.6622044775        1.4193662655       -7.4562350000  MEMB      109             0.0000000000
     13553       109  CHL1      H20           -13.6850458946        1.8522758556       -7.4298250000  MEMB      109             0.0000000000
     13554       109  CHL1      C21           -11.6452895921        2.5309509761       -7.6904550000  MEMB      109             0.0000000000
     13555       109  CHL1      H21A          -11.9925820883        3.0589945978       -8.6041750000  MEMB      109             0.0000000000
     13556       109  CHL1      H21B          -10.6232512242        2.1040885020       -7.7772650000  MEMB      109             0.0000000000
     13557       109  CHL1      H21C          -11.4941920948        3.2355832706       -6.8448850000  MEMB      109             0.0000000000
     13558       109  CHL1      C22           -12.3854054339        0.6309557664       -6.1431850000  MEMB      109             0.0000000000
     13559       109  CHL1      H22A          -13.2535076798       -0.0445501802       -5.9869550000  MEMB      109             0.0000000000
     13560       109  CHL1      H22B          -11.5319960096       -0.0334198194       -6.3974050000  MEMB      109             0.0000000000
     13561       109  CHL1      C23           -11.9964895182        1.3850426096       -4.9443450000  MEMB      109             0.0000000000
     13562       109  CHL1      H23A          -11.0486104591        1.9301728047       -5.1410150000  MEMB      109             0.0000000000
     13563       109  CHL1      H23B          -12.7848278171        2.1636551003       -4.8631050000  MEMB      109             0.0000000000
     13564       109  CHL1      C24           -11.8014514451        0.6114121175       -3.6477850000  MEMB      109             0.0000000000
     13565       109  CHL1      H24A          -12.6213232684       -0.1068371132       -3.4327250000  MEMB      109             0.0000000000
     13566       109  CHL1      H24B          -10.9998002646       -0.1414056143       -3.8057350000  MEMB      109             0.0000000000
     13567       109  CHL1      C25           -11.5071288967        1.5716128124       -2.4782950000  MEMB      109             0.0000000000
     13568       109  CHL1      H25           -12.3903174507        2.2326789518       -2.3468150000  MEMB      109             0.0000000000
     13569       109  CHL1      C26           -11.4477975323        0.7816093642       -1.0835450000  MEMB      109             0.0000000000
     13570       109  CHL1      H26A          -12.4530529123        0.3885386782       -0.8203650000  MEMB      109             0.0000000000
     13571       109  CHL1      H26B          -10.7676295035       -0.0965242121       -1.1073950000  MEMB      109             0.0000000000
     13572       109  CHL1      H26C          -11.1717212800        1.4889456900       -0.2725150000  MEMB      109             0.0000000000
     13573       109  CHL1      C27           -10.2679751128        2.4641295031       -2.5078550000  MEMB      109             0.0000000000
     13574       109  CHL1      H27A          -10.1230558812        2.9128997552       -1.5019150000  MEMB      109             0.0000000000
     13575       109  CHL1      H27B           -9.3643924493        1.8755289776       -2.7750750000  MEMB      109             0.0000000000
     13576       109  CHL1      H27C          -10.4633896353        3.2458515701       -3.2727350000  MEMB      109             0.0000000000
     13577       110  CHL1      C3             13.5050698155        0.7298243478      -17.4003150000  MEMB      110             0.0000000000
     13578       110  CHL1      H3             13.3635648417       -0.3640088331      -17.2668250000  MEMB      110             0.0000000000
     13579       110  CHL1      O3             12.8560763463        1.0369166607      -18.5996850000  MEMB      110             0.0000000000
     13580       110  CHL1      H3'            12.6806891061        1.9789557695      -18.6579450000  MEMB      110             0.0000000000
     13581       110  CHL1      C4             12.8832248466        1.6466129086      -16.3193850000  MEMB      110             0.0000000000
     13582       110  CHL1      H4A            12.7097260893        2.6980662364      -16.6335050000  MEMB      110             0.0000000000
     13583       110  CHL1      H4B            11.9106195475        1.1096474255      -16.3132250000  MEMB      110             0.0000000000
     13584       110  CHL1      C5             13.6167958539        1.5156158485      -15.0204950000  MEMB      110             0.0000000000
     13585       110  CHL1      C6             12.9588761359        1.2051322657      -13.8508850000  MEMB      110             0.0000000000
     13586       110  CHL1      H6             11.8624627971        1.1268139393      -13.8091550000  MEMB      110             0.0000000000
     13587       110  CHL1      C7             13.6828972569        1.0449709797      -12.5507950000  MEMB      110             0.0000000000
     13588       110  CHL1      H7A            13.0264455916        1.5156109670      -11.7879750000  MEMB      110             0.0000000000
     13589       110  CHL1      H7B            13.9040210706       -0.0150584602      -12.3022850000  MEMB      110             0.0000000000
     13590       110  CHL1      C8             15.0806716593        1.8370010909      -12.5602950000  MEMB      110             0.0000000000
     13591       110  CHL1      H8             14.8509612244        2.9179100720      -12.6751850000  MEMB      110             0.0000000000
     13592       110  CHL1      C14            15.9520904704        1.5939923816      -11.2964150000  MEMB      110             0.0000000000
     13593       110  CHL1      H14            16.1475754216        0.5021392347      -11.3594050000  MEMB      110             0.0000000000
     13594       110  CHL1      C15            15.2925063656        1.8530529504       -9.9829850000  MEMB      110             0.0000000000
     13595       110  CHL1      H15A           14.9637232055        2.9142810749       -9.9811650000  MEMB      110             0.0000000000
     13596       110  CHL1      H15B           14.3669041811        1.2407380306       -9.9314250000  MEMB      110             0.0000000000
     13597       110  CHL1      C16            16.4424266792        1.5983068797       -9.0096950000  MEMB      110             0.0000000000
     13598       110  CHL1      H16A           16.3395918082        2.4367724913       -8.2880850000  MEMB      110             0.0000000000
     13599       110  CHL1      H16B           16.3238213186        0.5887457280       -8.5613250000  MEMB      110             0.0000000000
     13600       110  CHL1      C17            17.7343339097        1.7002631239       -9.9140250000  MEMB      110             0.0000000000
     13601       110  CHL1      H17            18.0684999706        0.6537030626      -10.0794750000  MEMB      110             0.0000000000
     13602       110  CHL1      C13            17.3389311044        2.2734523884      -11.2050350000  MEMB      110             0.0000000000
     13603       110  CHL1      C18            17.2310824953        3.7350124611      -11.2233750000  MEMB      110             0.0000000000
     13604       110  CHL1      H18A           16.7771310216        4.1750749048      -12.1369450000  MEMB      110             0.0000000000
     13605       110  CHL1      H18B           16.7071901616        4.1050086205      -10.3162050000  MEMB      110             0.0000000000
     13606       110  CHL1      H18C           18.2614189328        4.1411186848      -11.3117950000  MEMB      110             0.0000000000
     13607       110  CHL1      C12            18.0548266410        1.7181162390      -12.4292750000  MEMB      110             0.0000000000
     13608       110  CHL1      H12A           19.0564888688        2.1952845525      -12.4868850000  MEMB      110             0.0000000000
     13609       110  CHL1      H12B           18.2086559612        0.6262091197      -12.2936950000  MEMB      110             0.0000000000
     13610       110  CHL1      C11            17.3762794700        2.0899192250      -13.7760150000  MEMB      110             0.0000000000
     13611       110  CHL1      H11A           17.3887816508        3.1904916486      -13.9273650000  MEMB      110             0.0000000000
     13612       110  CHL1      H11B           18.0513932294        1.5675101944      -14.4870950000  MEMB      110             0.0000000000
     13613       110  CHL1      C9             15.9129379018        1.4686292592      -13.8627450000  MEMB      110             0.0000000000
     13614       110  CHL1      H9             16.1346790383        0.3799913465      -13.8661950000  MEMB      110             0.0000000000
     13615       110  CHL1      C10            15.1487218506        1.7714406612      -15.1640750000  MEMB      110             0.0000000000
     13616       110  CHL1      C19            15.3216477366        3.2665153116      -15.6041850000  MEMB      110             0.0000000000
     13617       110  CHL1      H19A           16.3390789353        3.5710504719      -15.9304050000  MEMB      110             0.0000000000
     13618       110  CHL1      H19B           14.6928499388        3.4204491427      -16.5070850000  MEMB      110             0.0000000000
     13619       110  CHL1      H19C           14.9193469308        3.8926827942      -14.7793250000  MEMB      110             0.0000000000
     13620       110  CHL1      C1             15.7237958081        0.7935725515      -16.1924450000  MEMB      110             0.0000000000
     13621       110  CHL1      H1A            16.8312570326        0.8585535498      -16.2526850000  MEMB      110             0.0000000000
     13622       110  CHL1      H1B            15.5575170513       -0.2393950671      -15.8187350000  MEMB      110             0.0000000000
     13623       110  CHL1      C2             15.0124710663        0.8811155557      -17.6326550000  MEMB      110             0.0000000000
     13624       110  CHL1      H2A            15.5051316390        0.0599281638      -18.1959050000  MEMB      110             0.0000000000
     13625       110  CHL1      H2B            15.1631616925        1.9160066567      -18.0076550000  MEMB      110             0.0000000000
     13626       110  CHL1      C20            18.9430609652        2.2622833605       -9.0795650000  MEMB      110             0.0000000000
     13627       110  CHL1      H20            18.6511314784        3.2534328965       -8.6712450000  MEMB      110             0.0000000000
     13628       110  CHL1      C21            20.1648438720        2.4075718885      -10.0306150000  MEMB      110             0.0000000000
     13629       110  CHL1      H21A           21.1391590708        2.5691651405       -9.5217750000  MEMB      110             0.0000000000
     13630       110  CHL1      H21B           20.0504713382        3.2760829047      -10.7139350000  MEMB      110             0.0000000000
     13631       110  CHL1      H21C           20.2670124074        1.4877523065      -10.6452850000  MEMB      110             0.0000000000
     13632       110  CHL1      C22            19.1923588771        1.3965190378       -7.8692050000  MEMB      110             0.0000000000
     13633       110  CHL1      H22A           18.3502883777        1.4888111655       -7.1503750000  MEMB      110             0.0000000000
     13634       110  CHL1      H22B           19.3254680653        0.3291535918       -8.1472850000  MEMB      110             0.0000000000
     13635       110  CHL1      C23            20.4168798874        1.7250524577       -7.0178250000  MEMB      110             0.0000000000
     13636       110  CHL1      H23A           21.2542264962        1.1746236451       -7.4976150000  MEMB      110             0.0000000000
     13637       110  CHL1      H23B           20.5919131044        2.8204452237       -7.0795250000  MEMB      110             0.0000000000
     13638       110  CHL1      C24            20.3197663192        1.1919016407       -5.5881850000  MEMB      110             0.0000000000
     13639       110  CHL1      H24A           19.6407650595        1.8035336047       -4.9563850000  MEMB      110             0.0000000000
     13640       110  CHL1      H24B           19.9109496679        0.1588639532       -5.5830650000  MEMB      110             0.0000000000
     13641       110  CHL1      C25            21.7310171997        1.1500283353       -4.8627450000  MEMB      110             0.0000000000
     13642       110  CHL1      H25            22.4131971986        0.5872066983       -5.5351750000  MEMB      110             0.0000000000
     13643       110  CHL1      C26            22.4295360897        2.5277524894       -4.5354450000  MEMB      110             0.0000000000
     13644       110  CHL1      H26A           21.7644481910        3.0193355680       -3.7936150000  MEMB      110             0.0000000000
     13645       110  CHL1      H26B           23.4179547341        2.2132542127       -4.1374150000  MEMB      110             0.0000000000
     13646       110  CHL1      H26C           22.5075313831        3.1499431855       -5.4525750000  MEMB      110             0.0000000000
     13647       110  CHL1      C27            21.6847189158        0.3490884672       -3.5123850000  MEMB      110             0.0000000000
     13648       110  CHL1      H27A           21.3170811322        1.1002927704       -2.7810450000  MEMB      110             0.0000000000
     13649       110  CHL1      H27B           20.9544918916       -0.4872179472       -3.5532650000  MEMB      110             0.0000000000
     13650       110  CHL1      H27C           22.6711235726        0.0338865185       -3.1099350000  MEMB      110             0.0000000000
     13651       111  CHL1      C3             -2.7703558250       14.1071532278      -17.2786350000  MEMB      111             0.0000000000
     13652       111  CHL1      H3             -3.1171104205       15.0681093818      -16.8419950000  MEMB      111             0.0000000000
     13653       111  CHL1      O3             -2.9455115750       14.1600897722      -18.7213650000  MEMB      111             0.0000000000
     13654       111  CHL1      H3'            -3.8782931299       13.9686680594      -18.8433150000  MEMB      111             0.0000000000
     13655       111  CHL1      C4             -1.2020370155       14.0818817328      -16.9922150000  MEMB      111             0.0000000000
     13656       111  CHL1      H4A            -0.8657451993       13.1136381753      -17.4208450000  MEMB      111             0.0000000000
     13657       111  CHL1      H4B            -0.7424615035       14.9742827199      -17.4683950000  MEMB      111             0.0000000000
     13658       111  CHL1      C5             -1.0056590893       14.2027498447      -15.5056050000  MEMB      111             0.0000000000
     13659       111  CHL1      C6             -0.5626114786       15.2657832100      -14.8847950000  MEMB      111             0.0000000000
     13660       111  CHL1      H6             -0.3012914040       16.1631625529      -15.4648150000  MEMB      111             0.0000000000
     13661       111  CHL1      C7             -0.3327191175       15.3399265677      -13.4021050000  MEMB      111             0.0000000000
     13662       111  CHL1      H7A             0.5904245517       15.8879400740      -13.1161150000  MEMB      111             0.0000000000
     13663       111  CHL1      H7B            -1.1652801434       15.9725362886      -13.0266450000  MEMB      111             0.0000000000
     13664       111  CHL1      C8             -0.3795993626       14.0798466522      -12.6096950000  MEMB      111             0.0000000000
     13665       111  CHL1      H8              0.6333514269       13.6584953477      -12.7849550000  MEMB      111             0.0000000000
     13666       111  CHL1      C14            -0.5201355127       14.3185661263      -11.1162350000  MEMB      111             0.0000000000
     13667       111  CHL1      H14            -1.5224197356       14.7868943917      -11.0142150000  MEMB      111             0.0000000000
     13668       111  CHL1      C15             0.4394490049       15.2451378198      -10.3732650000  MEMB      111             0.0000000000
     13669       111  CHL1      H15A            1.5159445703       15.0496594264      -10.5663350000  MEMB      111             0.0000000000
     13670       111  CHL1      H15B            0.3075764366       16.3314543958      -10.5652550000  MEMB      111             0.0000000000
     13671       111  CHL1      C16             0.0933848650       14.9365456457       -8.9197550000  MEMB      111             0.0000000000
     13672       111  CHL1      H16A            1.0336896724       14.7795121997       -8.3492550000  MEMB      111             0.0000000000
     13673       111  CHL1      H16B           -0.5452908832       15.7468915293       -8.5077450000  MEMB      111             0.0000000000
     13674       111  CHL1      C17            -0.7140995397       13.6506678252       -8.8160250000  MEMB      111             0.0000000000
     13675       111  CHL1      H17            -1.7631546772       13.9841113066       -8.6655850000  MEMB      111             0.0000000000
     13676       111  CHL1      C13            -0.6663173101       13.0645559483      -10.2853150000  MEMB      111             0.0000000000
     13677       111  CHL1      C18             0.6660461101       12.2139063515      -10.4451050000  MEMB      111             0.0000000000
     13678       111  CHL1      H18A            0.8774152849       11.9503958382      -11.5035050000  MEMB      111             0.0000000000
     13679       111  CHL1      H18B            1.6170663423       12.6068721605      -10.0262350000  MEMB      111             0.0000000000
     13680       111  CHL1      H18C            0.4201750930       11.2488684960       -9.9526050000  MEMB      111             0.0000000000
     13681       111  CHL1      C12            -1.8341679406       12.2357442838      -10.7987050000  MEMB      111             0.0000000000
     13682       111  CHL1      H12A           -2.0508864840       11.2874855873      -10.2619050000  MEMB      111             0.0000000000
     13683       111  CHL1      H12B           -2.7235353734       12.8984513225      -10.7341550000  MEMB      111             0.0000000000
     13684       111  CHL1      C11            -1.6759372222       12.0176997233      -12.2983450000  MEMB      111             0.0000000000
     13685       111  CHL1      H11A           -0.8301155258       11.3211583332      -12.4820050000  MEMB      111             0.0000000000
     13686       111  CHL1      H11B           -2.6653496828       11.5599533393      -12.5124750000  MEMB      111             0.0000000000
     13687       111  CHL1      C9             -1.4594045629       13.2943205966      -13.1188950000  MEMB      111             0.0000000000
     13688       111  CHL1      H9             -2.2758834354       14.0013405214      -12.8585050000  MEMB      111             0.0000000000
     13689       111  CHL1      C10            -1.4959770836       13.0563035036      -14.7092350000  MEMB      111             0.0000000000
     13690       111  CHL1      C19            -0.4874243921       11.8019318647      -14.9217050000  MEMB      111             0.0000000000
     13691       111  CHL1      H19A           -1.0188192262       10.8713846867      -14.6283850000  MEMB      111             0.0000000000
     13692       111  CHL1      H19B           -0.2945311278       11.8090902918      -16.0158050000  MEMB      111             0.0000000000
     13693       111  CHL1      H19C            0.4960263616       11.9000350933      -14.4142350000  MEMB      111             0.0000000000
     13694       111  CHL1      C1             -3.0018353659       12.8026988365      -15.0569150000  MEMB      111             0.0000000000
     13695       111  CHL1      H1A            -3.2775707122       11.7978439301      -14.6714850000  MEMB      111             0.0000000000
     13696       111  CHL1      H1B            -3.5195293589       13.5973873184      -14.4783150000  MEMB      111             0.0000000000
     13697       111  CHL1      C2             -3.3766161369       12.8447179309      -16.6109550000  MEMB      111             0.0000000000
     13698       111  CHL1      H2A            -4.4875776922       12.8363328274      -16.6124450000  MEMB      111             0.0000000000
     13699       111  CHL1      H2B            -3.0913753091       11.9050937337      -17.1306450000  MEMB      111             0.0000000000
     13700       111  CHL1      C20            -0.2092227314       12.7126186210       -7.5901350000  MEMB      111             0.0000000000
     13701       111  CHL1      H20             0.8477959526       12.4316005573       -7.7852150000  MEMB      111             0.0000000000
     13702       111  CHL1      C21            -0.9520052204       11.4144289442       -7.4856950000  MEMB      111             0.0000000000
     13703       111  CHL1      H21A           -1.0250137530       10.7224532823       -8.3518150000  MEMB      111             0.0000000000
     13704       111  CHL1      H21B           -1.9716799959       11.6806104651       -7.1339150000  MEMB      111             0.0000000000
     13705       111  CHL1      H21C           -0.4255422370       10.7572737818       -6.7609250000  MEMB      111             0.0000000000
     13706       111  CHL1      C22            -0.2060762685       13.4104522016       -6.1807750000  MEMB      111             0.0000000000
     13707       111  CHL1      H22A            0.0893664853       14.4657458886       -6.3635650000  MEMB      111             0.0000000000
     13708       111  CHL1      H22B           -1.2843967168       13.3125948599       -5.9318450000  MEMB      111             0.0000000000
     13709       111  CHL1      C23             0.6877564947       12.7718913536       -5.0561350000  MEMB      111             0.0000000000
     13710       111  CHL1      H23A            0.1019013639       11.9792047004       -4.5435550000  MEMB      111             0.0000000000
     13711       111  CHL1      H23B            1.6262733350       12.3301520993       -5.4541050000  MEMB      111             0.0000000000
     13712       111  CHL1      C24             1.1756770249       13.8582348797       -4.0369850000  MEMB      111             0.0000000000
     13713       111  CHL1      H24A            1.9515201840       14.3518075314       -4.6605050000  MEMB      111             0.0000000000
     13714       111  CHL1      H24B            0.3248226455       14.4865916344       -3.6970750000  MEMB      111             0.0000000000
     13715       111  CHL1      C25             1.7957932967       13.2885580510       -2.7231250000  MEMB      111             0.0000000000
     13716       111  CHL1      H25             2.7533539424       12.7357888617       -2.8320050000  MEMB      111             0.0000000000
     13717       111  CHL1      C26             2.1997906453       14.4766138168       -1.7602650000  MEMB      111             0.0000000000
     13718       111  CHL1      H26A            2.5604482708       14.0969471284       -0.7804150000  MEMB      111             0.0000000000
     13719       111  CHL1      H26B            3.0367706637       15.0107659884       -2.2587450000  MEMB      111             0.0000000000
     13720       111  CHL1      H26C            1.4096877212       15.2271816904       -1.5441750000  MEMB      111             0.0000000000
     13721       111  CHL1      C27             0.7918404548       12.4299250667       -1.9562550000  MEMB      111             0.0000000000
     13722       111  CHL1      H27A           -0.1614737227       12.9334607725       -1.6879750000  MEMB      111             0.0000000000
     13723       111  CHL1      H27B            0.4128322654       11.5686029523       -2.5468450000  MEMB      111             0.0000000000
     13724       111  CHL1      H27C            1.1646957136       12.1617008775       -0.9446450000  MEMB      111             0.0000000000
     13725       112  23SM      N               3.7253993829      -15.3758709230      -27.8249313599  MEMB      112             0.0000000000
     13726       112  23SM      C15             2.3929270150      -16.0858962075      -27.8473718826  MEMB      112             0.0000000000
     13727       112  23SM      H15A            1.6761476880      -15.5036368692      -28.4073731635  MEMB      112             0.0000000000
     13728       112  23SM      H15B            2.1306016465      -16.2243639455      -26.8089056776  MEMB      112             0.0000000000
     13729       112  23SM      H15C            2.5654813301      -17.0472609384      -28.3082437314  MEMB      112             0.0000000000
     13730       112  23SM      C14             4.5958381442      -16.1679476728      -26.9916578814  MEMB      112             0.0000000000
     13731       112  23SM      H14A            4.1897999332      -16.2111690390      -25.9918254962  MEMB      112             0.0000000000
     13732       112  23SM      H14B            5.6159437543      -15.8209810454      -27.0651341229  MEMB      112             0.0000000000
     13733       112  23SM      H14C            4.5942708740      -17.2307153956      -27.1838105186  MEMB      112             0.0000000000
     13734       112  23SM      C13             4.2914113813      -15.3472727963      -29.2364267236  MEMB      112             0.0000000000
     13735       112  23SM      H13A            4.7109107852      -16.2847287235      -29.5704876057  MEMB      112             0.0000000000
     13736       112  23SM      H13B            5.0872563764      -14.6234940364      -29.3322129514  MEMB      112             0.0000000000
     13737       112  23SM      H13C            3.5969811069      -15.1635014930      -30.0428973017  MEMB      112             0.0000000000
     13738       112  23SM      C12             3.5162308687      -13.9795662978      -27.5011264881  MEMB      112             0.0000000000
     13739       112  23SM      H12A            3.0477774878      -13.5450784011      -28.3718569700  MEMB      112             0.0000000000
     13740       112  23SM      H12B            4.5014341423      -13.5373639035      -27.5163432414  MEMB      112             0.0000000000
     13741       112  23SM      C11             2.5493582835      -13.6176633528      -26.2188213129  MEMB      112             0.0000000000
     13742       112  23SM      H11A            1.4777470183      -13.7711877013      -26.4686222463  MEMB      112             0.0000000000
     13743       112  23SM      H11B            2.7241521054      -12.5457807207      -25.9846508491  MEMB      112             0.0000000000
     13744       112  23SM      P               3.9347881372      -14.1409375092      -24.1204333997  MEMB      112             0.0000000000
     13745       112  23SM      O13             5.0815809981      -15.0882897952      -24.2262684123  MEMB      112             0.0000000000
     13746       112  23SM      O14             4.3375220875      -12.7770438338      -24.2062775577  MEMB      112             0.0000000000
     13747       112  23SM      O11             3.1592666934      -14.5157254245      -22.7476942391  MEMB      112             0.0000000000
     13748       112  23SM      O12             2.7634367729      -14.5183733889      -25.0789907429  MEMB      112             0.0000000000
     13749       112  23SM      C1S             2.2912919178      -13.5105235308      -22.1550819500  MEMB      112             0.0000000000
     13750       112  23SM      H1S             1.2391343708      -13.5693022045      -22.5069775200  MEMB      112             0.0000000000
     13751       112  23SM      H1T             2.6360896724      -12.4914182453      -22.4323180652  MEMB      112             0.0000000000
     13752       112  23SM      NF              3.6998227561      -13.7283094433      -20.1311347975  MEMB      112             0.0000000000
     13753       112  23SM      HNF             4.0188877615      -14.5313294393      -19.6337763718  MEMB      112             0.0000000000
     13754       112  23SM      C2S             2.3534120677      -13.6595848267      -20.5796421326  MEMB      112             0.0000000000
     13755       112  23SM      H2S             1.7859382885      -12.8189752574      -20.1261336011  MEMB      112             0.0000000000
     13756       112  23SM      C3S             1.6711351048      -14.8981391213      -19.9677384969  MEMB      112             0.0000000000
     13757       112  23SM      H3S             2.2231443425      -15.8267549757      -20.2271211282  MEMB      112             0.0000000000
     13758       112  23SM      O3              0.3567959700      -15.0672064606      -20.4962176220  MEMB      112             0.0000000000
     13759       112  23SM      HO3             0.1316296045      -14.3412161451      -21.0825948900  MEMB      112             0.0000000000
     13760       112  23SM      C4S             1.6926701097      -14.8462253282      -18.4763513555  MEMB      112             0.0000000000
     13761       112  23SM      H4S             1.4539510648      -13.8732342075      -18.0221473521  MEMB      112             0.0000000000
     13762       112  23SM      C5S             2.2039995368      -15.7504060258      -17.6844620888  MEMB      112             0.0000000000
     13763       112  23SM      H5S             2.5762184826      -16.6508811582      -18.1949494620  MEMB      112             0.0000000000
     13764       112  23SM      C6S             2.2485589675      -15.7057890932      -16.1504255752  MEMB      112             0.0000000000
     13765       112  23SM      H6S             3.2978366920      -15.6456282930      -15.7902615708  MEMB      112             0.0000000000
     13766       112  23SM      H6T             1.9425898130      -16.6919744270      -15.7403736394  MEMB      112             0.0000000000
     13767       112  23SM      C7S             1.4442814868      -14.5873962458      -15.5587444498  MEMB      112             0.0000000000
     13768       112  23SM      H7S             0.3755880194      -14.7233613300      -15.8302746669  MEMB      112             0.0000000000
     13769       112  23SM      H7T             1.7122966644      -13.5836696322      -15.9524724334  MEMB      112             0.0000000000
     13770       112  23SM      C8S             1.7831676711      -14.3206841626      -14.0456251847  MEMB      112             0.0000000000
     13771       112  23SM      H8S             1.3944713971      -13.3277038285      -13.7338141627  MEMB      112             0.0000000000
     13772       112  23SM      H8T             2.8868596241      -14.1954624748      -14.0680879526  MEMB      112             0.0000000000
     13773       112  23SM      C9S             1.2495711513      -15.5328896374      -13.1781837022  MEMB      112             0.0000000000
     13774       112  23SM      H9S             1.3763063987      -16.5385013428      -13.6331613989  MEMB      112             0.0000000000
     13775       112  23SM      H9T             0.1416867712      -15.4514790282      -13.1612936773  MEMB      112             0.0000000000
     13776       112  23SM      C10S            1.8432849171      -15.4783408518      -11.7632200343  MEMB      112             0.0000000000
     13777       112  23SM      H10S            1.8441914151      -14.4217942772      -11.4196658561  MEMB      112             0.0000000000
     13778       112  23SM      H10T            2.9430485155      -15.5892227101      -11.8752290689  MEMB      112             0.0000000000
     13779       112  23SM      C11S            1.2345554937      -16.4804528184      -10.7609434183  MEMB      112             0.0000000000
     13780       112  23SM      H11S            1.3084062244      -17.4285568462      -11.3353701617  MEMB      112             0.0000000000
     13781       112  23SM      H11T            0.1709509072      -16.1846082423      -10.6362749848  MEMB      112             0.0000000000
     13782       112  23SM      C12S            1.8781561256      -16.4914150844       -9.3295330424  MEMB      112             0.0000000000
     13783       112  23SM      H12S            1.5567891875      -15.5359793040       -8.8624284653  MEMB      112             0.0000000000
     13784       112  23SM      H12T            2.9665487747      -16.4882829001       -9.5524970443  MEMB      112             0.0000000000
     13785       112  23SM      C13S            1.4591613097      -17.6042922169       -8.4496969614  MEMB      112             0.0000000000
     13786       112  23SM      H13S            1.7456981783      -18.5980371692       -8.8555155963  MEMB      112             0.0000000000
     13787       112  23SM      H13T            0.3581396317      -17.6860261198       -8.3256345039  MEMB      112             0.0000000000
     13788       112  23SM      C14S            2.0320097124      -17.6300605391       -7.0412520482  MEMB      112             0.0000000000
     13789       112  23SM      H14S            1.7402571868      -16.5871228326       -6.7932954975  MEMB      112             0.0000000000
     13790       112  23SM      H14T            3.1373324270      -17.6749268658       -6.9384433109  MEMB      112             0.0000000000
     13791       112  23SM      C15S            1.1272451690      -18.3685570889       -6.0612471245  MEMB      112             0.0000000000
     13792       112  23SM      H15S            0.8983055487      -19.4227175260       -6.3270542048  MEMB      112             0.0000000000
     13793       112  23SM      H15T            0.1669475424      -17.8184523565       -5.9636030145  MEMB      112             0.0000000000
     13794       112  23SM      C16S            1.8073401782      -18.5387727607       -4.6746075059  MEMB      112             0.0000000000
     13795       112  23SM      H16S            2.7166258074      -19.1250847654       -4.9271129070  MEMB      112             0.0000000000
     13796       112  23SM      H16T            1.1570412223      -19.1861675405       -4.0482587938  MEMB      112             0.0000000000
     13797       112  23SM      C17S            2.0827538691      -17.2647473979       -3.9278637832  MEMB      112             0.0000000000
     13798       112  23SM      H17S            1.2127837240      -16.5989687990       -4.1128283364  MEMB      112             0.0000000000
     13799       112  23SM      H17T            2.9348832562      -16.7964900002       -4.4653875620  MEMB      112             0.0000000000
     13800       112  23SM      C18S            2.3097157462      -17.4403006113       -2.3642921209  MEMB      112             0.0000000000
     13801       112  23SM      H18S            3.1853682235      -18.1106499749       -2.2294379638  MEMB      112             0.0000000000
     13802       112  23SM      H18T            1.4414235636      -18.0273639849       -1.9958549073  MEMB      112             0.0000000000
     13803       112  23SM      H18U            2.4874927690      -16.4851505145       -1.8254002009  MEMB      112             0.0000000000
     13804       112  23SM      C1F             4.5680534056      -12.8013476189      -20.3569313231  MEMB      112             0.0000000000
     13805       112  23SM      OF              4.3455674435      -11.6930908814      -20.8074927721  MEMB      112             0.0000000000
     13806       112  23SM      C2F             6.0242032779      -13.0766431724      -20.1392127429  MEMB      112             0.0000000000
     13807       112  23SM      H2F             6.5534881301      -12.4883166824      -20.9189889716  MEMB      112             0.0000000000
     13808       112  23SM      H2G             6.2497114720      -14.1478519410      -20.3288934147  MEMB      112             0.0000000000
     13809       112  23SM      C3F             6.4354336643      -12.6089527400      -18.7722625736  MEMB      112             0.0000000000
     13810       112  23SM      H3F             6.1420535415      -11.5431184078      -18.6616016020  MEMB      112             0.0000000000
     13811       112  23SM      H3G             7.4952580417      -12.9113162720      -18.6320130426  MEMB      112             0.0000000000
     13812       112  23SM      C4F             5.6259156176      -13.2842000010      -17.6149006817  MEMB      112             0.0000000000
     13813       112  23SM      H4F             5.6687069458      -14.3307211963      -17.9854184043  MEMB      112             0.0000000000
     13814       112  23SM      H4G             4.5895893997      -12.9087744661      -17.7542017708  MEMB      112             0.0000000000
     13815       112  23SM      C5F             6.3964687286      -13.2043892779      -16.3068348294  MEMB      112             0.0000000000
     13816       112  23SM      H5F             6.2324773690      -12.2536082722      -15.7559774409  MEMB      112             0.0000000000
     13817       112  23SM      H5G             7.4953935600      -13.1989624812      -16.4701003990  MEMB      112             0.0000000000
     13818       112  23SM      C6F             6.0880076756      -14.3492262873      -15.3852902052  MEMB      112             0.0000000000
     13819       112  23SM      H6F             6.4434990777      -15.3272729470      -15.7743545998  MEMB      112             0.0000000000
     13820       112  23SM      H6G             5.0151424218      -14.3877358225      -15.0992864573  MEMB      112             0.0000000000
     13821       112  23SM      C7F             6.8016079314      -14.2395599688      -13.9924531798  MEMB      112             0.0000000000
     13822       112  23SM      H7F             6.2356684595      -13.4659309482      -13.4307309507  MEMB      112             0.0000000000
     13823       112  23SM      H7G             7.8491108125      -13.8735187519      -14.0478823912  MEMB      112             0.0000000000
     13824       112  23SM      C8F             6.8248959232      -15.5334270509      -13.2087649168  MEMB      112             0.0000000000
     13825       112  23SM      H8F             7.4611151811      -16.3375217048      -13.6365232055  MEMB      112             0.0000000000
     13826       112  23SM      H8G             5.8122218221      -15.9494476654      -13.3978128696  MEMB      112             0.0000000000
     13827       112  23SM      C9F             7.1039680227      -15.4142608751      -11.7166758658  MEMB      112             0.0000000000
     13828       112  23SM      H9F             6.5756989359      -14.5450325116      -11.2698035333  MEMB      112             0.0000000000
     13829       112  23SM      H9G             8.2054189666      -15.3259955136      -11.6011922099  MEMB      112             0.0000000000
     13830       112  23SM      C10F            6.3792044921      -16.4180865392      -10.8470647226  MEMB      112             0.0000000000
     13831       112  23SM      H10F            6.3768671275      -17.3806312554      -11.4018826791  MEMB      112             0.0000000000
     13832       112  23SM      H10G            5.2905186048      -16.1981393034      -10.8204707148  MEMB      112             0.0000000000
     13833       112  23SM      C11F            6.9667342213      -16.7333463437       -9.5129224634  MEMB      112             0.0000000000
     13834       112  23SM      H11F            8.0060365710      -17.0301253626       -9.7700090423  MEMB      112             0.0000000000
     13835       112  23SM      H11G            6.4897050603      -17.6322511520       -9.0671277173  MEMB      112             0.0000000000
     13836       112  23SM      C12F            6.8615156520      -15.6501753946       -8.4409830264  MEMB      112             0.0000000000
     13837       112  23SM      H12F            5.8071254389      -15.5078973382       -8.1210781275  MEMB      112             0.0000000000
     13838       112  23SM      H12G            7.2743140376      -14.7034867861       -8.8504947189  MEMB      112             0.0000000000
     13839       112  23SM      C13F            7.6827307317      -16.0229292209       -7.2278021717  MEMB      112             0.0000000000
     13840       112  23SM      H13F            8.7009003111      -16.4247308144       -7.4180837560  MEMB      112             0.0000000000
     13841       112  23SM      H13G            7.2253853177      -16.9173328802       -6.7532509041  MEMB      112             0.0000000000
     13842       112  23SM      C14F            7.9598558991      -14.9337035368       -6.1349902787  MEMB      112             0.0000000000
     13843       112  23SM      H14F            8.4210773487      -14.0314849340       -6.5906172416  MEMB      112             0.0000000000
     13844       112  23SM      H14G            8.6228778402      -15.1839727708       -5.2793680165  MEMB      112             0.0000000000
     13845       112  23SM      C15F            6.5858247481      -14.5587021486       -5.4420838518  MEMB      112             0.0000000000
     13846       112  23SM      H15F            6.1572038276      -15.4571824473       -4.9487908229  MEMB      112             0.0000000000
     13847       112  23SM      H15G            5.9506240744      -14.1929156653       -6.2769742741  MEMB      112             0.0000000000
     13848       112  23SM      C16F            6.6549029771      -13.4158311631       -4.4383215347  MEMB      112             0.0000000000
     13849       112  23SM      H16F            7.0301766306      -12.4814252306       -4.9077628600  MEMB      112             0.0000000000
     13850       112  23SM      H16G            7.1959373298      -13.6922044450       -3.5081489350  MEMB      112             0.0000000000
     13851       112  23SM      C17F            5.3227018097      -12.9542271035       -3.8774474312  MEMB      112             0.0000000000
     13852       112  23SM      H17F            4.9292136498      -12.5221471481       -4.8223268499  MEMB      112             0.0000000000
     13853       112  23SM      H17G            5.6067031317      -12.1403769431       -3.1765119095  MEMB      112             0.0000000000
     13854       112  23SM      C18F            4.5025640601      -14.0455529221       -3.1564534868  MEMB      112             0.0000000000
     13855       112  23SM      H18F            4.1757359119      -14.8512077281       -3.8481358473  MEMB      112             0.0000000000
     13856       112  23SM      H18G            3.5662112921      -13.5133953021       -2.8837390608  MEMB      112             0.0000000000
     13857       112  23SM      C19F            5.1578011779      -14.6317208867       -1.8491116605  MEMB      112             0.0000000000
     13858       112  23SM      H19F            6.1469001276      -15.0617961757       -2.1156450727  MEMB      112             0.0000000000
     13859       112  23SM      H19G            4.5782995772      -15.5433660216       -1.5894922224  MEMB      112             0.0000000000
     13860       112  23SM      C20F            5.1598428288      -13.6334989902       -0.6894186347  MEMB      112             0.0000000000
     13861       112  23SM      H20F            4.2370796603      -13.0184433722       -0.6220700978  MEMB      112             0.0000000000
     13862       112  23SM      H20G            6.0575568457      -13.0112193295       -0.8923903603  MEMB      112             0.0000000000
     13863       112  23SM      C21F            5.2390876400      -14.2197624199        0.7110553084  MEMB      112             0.0000000000
     13864       112  23SM      H21F            4.4176494122      -14.9161799457        0.9841173824  MEMB      112             0.0000000000
     13865       112  23SM      H21G            5.1472956429      -13.4123998668        1.4687228684  MEMB      112             0.0000000000
     13866       112  23SM      C22F            6.5926440510      -14.9628304304        1.0044724737  MEMB      112             0.0000000000
     13867       112  23SM      H22F            7.2676454436      -14.1923456342        0.5743031523  MEMB      112             0.0000000000
     13868       112  23SM      H22G            6.5778877310      -15.9280378210        0.4544932837  MEMB      112             0.0000000000
     13869       112  23SM      C23F            6.8502875988      -15.1664673508        2.4908745287  MEMB      112             0.0000000000
     13870       112  23SM      H23F            7.6582344984      -15.8846793801        2.7472227553  MEMB      112             0.0000000000
     13871       112  23SM      H23G            5.9524769997      -15.4726315179        3.0692529762  MEMB      112             0.0000000000
     13872       112  23SM      H23H            7.1031621539      -14.1882804717        2.9529636157  MEMB      112             0.0000000000
     13873       113  DOPE      N              -2.9676842594      -16.2927438820      -20.4796676590  MEMB      113             0.0000000000
     13874       113  DOPE      HN1            -2.3161842988      -16.6765941409      -21.1936752609  MEMB      113             0.0000000000
     13875       113  DOPE      HN2            -3.3568447040      -17.0727194377      -19.9124002182  MEMB      113             0.0000000000
     13876       113  DOPE      HN3            -3.7446642884      -15.9486499414      -21.0792517560  MEMB      113             0.0000000000
     13877       113  DOPE      C12            -2.2372281784      -15.3050687198      -19.7121081376  MEMB      113             0.0000000000
     13878       113  DOPE      H12A           -1.9952021480      -14.4677501973      -20.4010508386  MEMB      113             0.0000000000
     13879       113  DOPE      H12B           -1.3232658689      -15.7664860246      -19.2807290847  MEMB      113             0.0000000000
     13880       113  DOPE      C11            -3.2233440224      -14.7858198188      -18.7185177249  MEMB      113             0.0000000000
     13881       113  DOPE      H11A           -2.6994947595      -13.9637740086      -18.1854664682  MEMB      113             0.0000000000
     13882       113  DOPE      H11B           -3.5372505429      -15.6699720792      -18.1234896208  MEMB      113             0.0000000000
     13883       113  DOPE      P              -5.6827659837      -13.9685467925      -18.6418058154  MEMB      113             0.0000000000
     13884       113  DOPE      O13            -6.4114331545      -15.2169059888      -18.9706241780  MEMB      113             0.0000000000
     13885       113  DOPE      O14            -6.3134182666      -12.6948104962      -18.9878574217  MEMB      113             0.0000000000
     13886       113  DOPE      O11            -5.2631281535      -14.0583623388      -17.0971039747  MEMB      113             0.0000000000
     13887       113  DOPE      O12            -4.3329286217      -14.1457475615      -19.3923151059  MEMB      113             0.0000000000
     13888       113  DOPE      C1             -6.1535184589      -14.4168613142      -16.1163427118  MEMB      113             0.0000000000
     13889       113  DOPE      HA             -5.5694488439      -14.6679260142      -15.2052168900  MEMB      113             0.0000000000
     13890       113  DOPE      HB             -6.7452921670      -15.3378433738      -16.3058603583  MEMB      113             0.0000000000
     13891       113  DOPE      C2             -7.1466197854      -13.2604193101      -15.8440950767  MEMB      113             0.0000000000
     13892       113  DOPE      HS             -7.5670628449      -12.9378686727      -16.8205732936  MEMB      113             0.0000000000
     13893       113  DOPE      O21            -6.3000155768      -12.1800241898      -15.3631384457  MEMB      113             0.0000000000
     13894       113  DOPE      C21            -6.7634794379      -10.9382305931      -15.4653902784  MEMB      113             0.0000000000
     13895       113  DOPE      O22            -7.8027362977      -10.6141122873      -16.0126620543  MEMB      113             0.0000000000
     13896       113  DOPE      C22            -5.8293165285       -9.8410195723      -14.8676113369  MEMB      113             0.0000000000
     13897       113  DOPE      H2R            -5.8955483574       -8.9327680744      -15.5040181290  MEMB      113             0.0000000000
     13898       113  DOPE      H2S            -4.7578036435      -10.1275514997      -14.8037313763  MEMB      113             0.0000000000
     13899       113  DOPE      C3             -8.2782271614      -13.5911859427      -14.8990970903  MEMB      113             0.0000000000
     13900       113  DOPE      HX             -8.8715175220      -14.3073054966      -15.5069625337  MEMB      113             0.0000000000
     13901       113  DOPE      HY             -8.8611173717      -12.6510893551      -14.7952811737  MEMB      113             0.0000000000
     13902       113  DOPE      O31            -7.8822826859      -14.0717738682      -13.5668739443  MEMB      113             0.0000000000
     13903       113  DOPE      C31            -8.7363750119      -13.8244404534      -12.5671990599  MEMB      113             0.0000000000
     13904       113  DOPE      O32            -9.9289869508      -13.5492171569      -12.6331140799  MEMB      113             0.0000000000
     13905       113  DOPE      C32            -7.9808185744      -14.0823331863      -11.1962062468  MEMB      113             0.0000000000
     13906       113  DOPE      H2X            -7.1692476091      -14.8392723298      -11.2483304850  MEMB      113             0.0000000000
     13907       113  DOPE      H2Y            -7.5140633489      -13.1317056613      -10.8603966465  MEMB      113             0.0000000000
     13908       113  DOPE      C23            -6.3662212322       -9.3689316220      -13.4841704292  MEMB      113             0.0000000000
     13909       113  DOPE      H3R            -7.4423909258       -9.3126032390      -13.7543678218  MEMB      113             0.0000000000
     13910       113  DOPE      H3S            -5.9883514731       -8.3526533764      -13.2418610654  MEMB      113             0.0000000000
     13911       113  DOPE      C24            -6.1669093901      -10.2801580275      -12.3120182720  MEMB      113             0.0000000000
     13912       113  DOPE      H4R            -6.7426958127      -11.2296116673      -12.3484736449  MEMB      113             0.0000000000
     13913       113  DOPE      H4S            -6.6136366786       -9.6791577531      -11.4913147184  MEMB      113             0.0000000000
     13914       113  DOPE      C25            -4.7418920050      -10.5997409799      -12.0741259270  MEMB      113             0.0000000000
     13915       113  DOPE      H5R            -4.2604411636       -9.6012930717      -11.9991085726  MEMB      113             0.0000000000
     13916       113  DOPE      H5S            -4.3208866430      -11.1778711865      -12.9243264956  MEMB      113             0.0000000000
     13917       113  DOPE      C26            -4.4011456855      -11.3468333326      -10.7032949227  MEMB      113             0.0000000000
     13918       113  DOPE      H6R            -4.7346012344      -12.4011918747      -10.8103312072  MEMB      113             0.0000000000
     13919       113  DOPE      H6S            -4.9830100107      -10.8426377036       -9.9023318719  MEMB      113             0.0000000000
     13920       113  DOPE      C27            -2.8774778826      -11.3534115836      -10.4074309649  MEMB      113             0.0000000000
     13921       113  DOPE      H7R            -2.4538057833      -10.3398169424      -10.2417556799  MEMB      113             0.0000000000
     13922       113  DOPE      H7S            -2.4336802830      -11.8361899592      -11.3042532080  MEMB      113             0.0000000000
     13923       113  DOPE      C28            -2.5493445834      -12.3975067861       -9.2851325497  MEMB      113             0.0000000000
     13924       113  DOPE      H8R            -1.4972565823      -12.2702687676       -8.9516021293  MEMB      113             0.0000000000
     13925       113  DOPE      H8S            -2.6436901935      -13.4027340903       -9.7487458378  MEMB      113             0.0000000000
     13926       113  DOPE      C29            -3.5892365345      -12.5293492939       -8.1586839261  MEMB      113             0.0000000000
     13927       113  DOPE      H9R            -4.5877172783      -12.6794821042       -8.5951429536  MEMB      113             0.0000000000
     13928       113  DOPE      C210           -3.4295373228      -12.5152060663       -6.8280772632  MEMB      113             0.0000000000
     13929       113  DOPE      H10R           -4.2848555424      -12.7508947795       -6.1777835082  MEMB      113             0.0000000000
     13930       113  DOPE      C211           -2.1539422173      -12.3050932302       -6.0667853217  MEMB      113             0.0000000000
     13931       113  DOPE      H11R           -1.2329029382      -12.1363650749       -6.6647312768  MEMB      113             0.0000000000
     13932       113  DOPE      H11S           -1.8846252664      -13.2331873977       -5.5186703806  MEMB      113             0.0000000000
     13933       113  DOPE      C212           -2.3366647172      -11.1727269477       -4.9894999787  MEMB      113             0.0000000000
     13934       113  DOPE      H12R           -2.2752284707      -10.1552482822       -5.4314090467  MEMB      113             0.0000000000
     13935       113  DOPE      H12S           -1.4857881127      -11.2407739502       -4.2783743251  MEMB      113             0.0000000000
     13936       113  DOPE      C213           -3.7261208582      -11.1353747414       -4.2356373393  MEMB      113             0.0000000000
     13937       113  DOPE      H13R           -4.4969067373      -10.9217239213       -5.0067170730  MEMB      113             0.0000000000
     13938       113  DOPE      H13S           -3.7368115440      -10.2334787548       -3.5869542311  MEMB      113             0.0000000000
     13939       113  DOPE      C214           -4.0504600471      -12.4127208680       -3.4811154453  MEMB      113             0.0000000000
     13940       113  DOPE      H14R           -3.9338662534      -13.3339344743       -4.0911091130  MEMB      113             0.0000000000
     13941       113  DOPE      H14S           -5.0634752086      -12.4180766650       -3.0249439682  MEMB      113             0.0000000000
     13942       113  DOPE      C215           -3.1354989482      -12.8407403926       -2.3083111992  MEMB      113             0.0000000000
     13943       113  DOPE      H15R           -3.6935570263      -13.6711212687       -1.8252380692  MEMB      113             0.0000000000
     13944       113  DOPE      H15S           -3.0002886992      -12.0201417219       -1.5716582091  MEMB      113             0.0000000000
     13945       113  DOPE      C216           -1.8404197059      -13.5800142737       -2.6227933179  MEMB      113             0.0000000000
     13946       113  DOPE      H16R           -1.1212289526      -12.9485487843       -3.1870070863  MEMB      113             0.0000000000
     13947       113  DOPE      H16S           -2.0970421823      -14.4488128932       -3.2659537747  MEMB      113             0.0000000000
     13948       113  DOPE      C217           -0.9795504669      -14.0722045950       -1.4543960008  MEMB      113             0.0000000000
     13949       113  DOPE      H17R           -0.6219163532      -13.1156931257       -1.0167834775  MEMB      113             0.0000000000
     13950       113  DOPE      H17S           -0.1000396263      -14.5961272725       -1.8860047198  MEMB      113             0.0000000000
     13951       113  DOPE      C218           -1.6866804289      -15.0711374659       -0.4500120098  MEMB      113             0.0000000000
     13952       113  DOPE      H18R           -2.0109088646      -16.0093405991       -0.9489824781  MEMB      113             0.0000000000
     13953       113  DOPE      H18S           -2.6387414268      -14.6554514088       -0.0561776164  MEMB      113             0.0000000000
     13954       113  DOPE      H18T           -0.9736283769      -15.3460395854        0.3564025806  MEMB      113             0.0000000000
     13955       113  DOPE      C33            -9.0556400058      -14.5047428253      -10.1340744687  MEMB      113             0.0000000000
     13956       113  DOPE      H3X            -9.4322586803      -15.5272992532      -10.3505401121  MEMB      113             0.0000000000
     13957       113  DOPE      H3Y            -9.9540993113      -13.8616185553      -10.2501907768  MEMB      113             0.0000000000
     13958       113  DOPE      C34            -8.6443929720      -14.2796323523       -8.6740513152  MEMB      113             0.0000000000
     13959       113  DOPE      H4X            -8.4570788335      -13.2058560867       -8.4590193013  MEMB      113             0.0000000000
     13960       113  DOPE      H4Y            -9.4475975378      -14.7439786155       -8.0628511146  MEMB      113             0.0000000000
     13961       113  DOPE      C35            -7.3380345074      -15.0110768157       -8.3789584062  MEMB      113             0.0000000000
     13962       113  DOPE      H5X            -6.9947117992      -14.7851705107       -7.3467684906  MEMB      113             0.0000000000
     13963       113  DOPE      H5Y            -6.4366443432      -14.6222828751       -8.8992044623  MEMB      113             0.0000000000
     13964       113  DOPE      C36            -7.3254735229      -16.5235341228       -8.5537146150  MEMB      113             0.0000000000
     13965       113  DOPE      H6X            -6.3623023404      -17.0105149620       -8.2901391209  MEMB      113             0.0000000000
     13966       113  DOPE      H6Y            -7.5678785576      -16.8335941223       -9.5926681380  MEMB      113             0.0000000000
     13967       113  DOPE      C37            -8.2064719098      -17.3006774443       -7.5430661821  MEMB      113             0.0000000000
     13968       113  DOPE      H7X            -9.2650689097      -17.1541791940       -7.8467634386  MEMB      113             0.0000000000
     13969       113  DOPE      H7Y            -8.0775202068      -18.4041595373       -7.5475226670  MEMB      113             0.0000000000
     13970       113  DOPE      C38            -8.0470921644      -16.8314348983       -6.0629444540  MEMB      113             0.0000000000
     13971       113  DOPE      H8X            -8.8259531842      -17.3998336288       -5.5110208348  MEMB      113             0.0000000000
     13972       113  DOPE      H8Y            -8.3738364985      -15.7698331081       -6.0392614764  MEMB      113             0.0000000000
     13973       113  DOPE      C39            -6.6100877502      -16.9806776333       -5.6142838356  MEMB      113             0.0000000000
     13974       113  DOPE      H9X            -5.8962459342      -16.2397159927       -6.0033928835  MEMB      113             0.0000000000
     13975       113  DOPE      C310           -6.1467599408      -17.7584522025       -4.6370828982  MEMB      113             0.0000000000
     13976       113  DOPE      H10X           -5.1494769283      -17.5764897993       -4.2100970920  MEMB      113             0.0000000000
     13977       113  DOPE      C311           -6.8189039939      -18.6747146259       -3.6548308154  MEMB      113             0.0000000000
     13978       113  DOPE      H11X           -7.5400394937      -19.2514235546       -4.2726420280  MEMB      113             0.0000000000
     13979       113  DOPE      H11Y           -6.0527041754      -19.3141985482       -3.1666505874  MEMB      113             0.0000000000
     13980       113  DOPE      C312           -7.5344598466      -17.8134032282       -2.5735043834  MEMB      113             0.0000000000
     13981       113  DOPE      H12X           -8.0803626444      -18.4036161522       -1.8067174692  MEMB      113             0.0000000000
     13982       113  DOPE      H12Y           -8.3608574005      -17.2964610690       -3.1065691052  MEMB      113             0.0000000000
     13983       113  DOPE      C313           -6.6210067160      -16.8966417511       -1.7707754290  MEMB      113             0.0000000000
     13984       113  DOPE      H13X           -5.8582638570      -17.5865730854       -1.3506092182  MEMB      113             0.0000000000
     13985       113  DOPE      H13Y           -5.9348158009      -16.2276076937       -2.3327862350  MEMB      113             0.0000000000
     13986       113  DOPE      C314           -7.3125264237      -16.3010863325       -0.5427741706  MEMB      113             0.0000000000
     13987       113  DOPE      H14X           -6.6067070157      -15.8256291606        0.1714235646  MEMB      113             0.0000000000
     13988       113  DOPE      H14Y           -7.7992081055      -17.1294344985        0.0151685902  MEMB      113             0.0000000000
     13989       113  DOPE      C315           -8.3157483669      -15.1946647678       -0.8605354316  MEMB      113             0.0000000000
     13990       113  DOPE      H15X           -9.0752808985      -15.2628159737       -0.0525819843  MEMB      113             0.0000000000
     13991       113  DOPE      H15Y           -8.9476080897      -15.3767613339       -1.7560314420  MEMB      113             0.0000000000
     13992       113  DOPE      C316           -7.7054234541      -13.8087733875       -1.0831954230  MEMB      113             0.0000000000
     13993       113  DOPE      H16X           -6.9655787757      -13.9970912879       -1.8903431756  MEMB      113             0.0000000000
     13994       113  DOPE      H16Y           -7.2445963277      -13.4743546229       -0.1291926498  MEMB      113             0.0000000000
     13995       113  DOPE      C317           -8.6378150934      -12.7134629612       -1.6541640222  MEMB      113             0.0000000000
     13996       113  DOPE      H17X           -8.8886933074      -12.9503814464       -2.7102187576  MEMB      113             0.0000000000
     13997       113  DOPE      H17Y           -9.4780162586      -12.5935008567       -0.9372326087  MEMB      113             0.0000000000
     13998       113  DOPE      C318           -7.9203728628      -11.3419453991       -1.7345541772  MEMB      113             0.0000000000
     13999       113  DOPE      H18X           -8.6846229862      -10.5474298243       -1.8723528216  MEMB      113             0.0000000000
     14000       113  DOPE      H18Y           -7.3886359663      -11.2642455016       -0.7621665318  MEMB      113             0.0000000000
     14001       113  DOPE      H18Z           -7.1730369108      -11.3863757334       -2.5554303654  MEMB      113             0.0000000000
     14002       114  CHL1      C3              4.4708806728       14.3036990577      -17.4179800000  MEMB      114             0.0000000000
     14003       114  CHL1      H3              3.3726935936       14.3305686620      -17.5840600000  MEMB      114             0.0000000000
     14004       114  CHL1      O3              5.1882876379       13.9530813301      -18.5820200000  MEMB      114             0.0000000000
     14005       114  CHL1      H3'             5.0474891810       13.0247599765      -18.7820000000  MEMB      114             0.0000000000
     14006       114  CHL1      C4              4.9229695368       15.6240378264      -16.8097800000  MEMB      114             0.0000000000
     14007       114  CHL1      H4A             6.0318881728       15.6884416623      -16.7880400000  MEMB      114             0.0000000000
     14008       114  CHL1      H4B             4.6203749772       16.3958223405      -17.5494600000  MEMB      114             0.0000000000
     14009       114  CHL1      C5              4.3557890535       15.8809123994      -15.3946500000  MEMB      114             0.0000000000
     14010       114  CHL1      C6              3.9031038963       17.0862434247      -15.0729000000  MEMB      114             0.0000000000
     14011       114  CHL1      H6              3.6925939714       17.8375454865      -15.8483000000  MEMB      114             0.0000000000
     14012       114  CHL1      C7              3.3486947577       17.5116994618      -13.7354600000  MEMB      114             0.0000000000
     14013       114  CHL1      H7A             3.7512009428       18.4891250502      -13.3934700000  MEMB      114             0.0000000000
     14014       114  CHL1      H7B             2.2663298286       17.7507343011      -13.8106700000  MEMB      114             0.0000000000
     14015       114  CHL1      C8              3.5797799441       16.4714935291      -12.6412500000  MEMB      114             0.0000000000
     14016       114  CHL1      H8              4.6004901308       16.5954029142      -12.2204100000  MEMB      114             0.0000000000
     14017       114  CHL1      C14             2.6422066525       16.6698644703      -11.4945800000  MEMB      114             0.0000000000
     14018       114  CHL1      H14             1.6233302960       16.6006861191      -11.9321000000  MEMB      114             0.0000000000
     14019       114  CHL1      C15             2.6532449019       17.9764734413      -10.6940100000  MEMB      114             0.0000000000
     14020       114  CHL1      H15A            3.6939881358       18.3302555075      -10.5327000000  MEMB      114             0.0000000000
     14021       114  CHL1      H15B            2.1279820772       18.6895001453      -11.3648400000  MEMB      114             0.0000000000
     14022       114  CHL1      C16             1.9306314766       17.6311971933       -9.4133500000  MEMB      114             0.0000000000
     14023       114  CHL1      H16A            2.4929905863       17.9871683958       -8.5237800000  MEMB      114             0.0000000000
     14024       114  CHL1      H16B            0.9802503358       18.2026771822       -9.3462100000  MEMB      114             0.0000000000
     14025       114  CHL1      C17             1.7146921519       16.1038652932       -9.3057100000  MEMB      114             0.0000000000
     14026       114  CHL1      H17             0.7062380695       15.8729869930       -9.7107200000  MEMB      114             0.0000000000
     14027       114  CHL1      C13             2.6850449082       15.5784611405      -10.3792300000  MEMB      114             0.0000000000
     14028       114  CHL1      C18             4.1217403693       15.6118339753       -9.8066400000  MEMB      114             0.0000000000
     14029       114  CHL1      H18A            4.9570011166       15.5640916842      -10.5376500000  MEMB      114             0.0000000000
     14030       114  CHL1      H18B            4.3507795956       16.5571893156       -9.2698200000  MEMB      114             0.0000000000
     14031       114  CHL1      H18C            4.1079863969       14.7225744068       -9.1408000000  MEMB      114             0.0000000000
     14032       114  CHL1      C12             2.2841637452       14.2543374069      -11.0664300000  MEMB      114             0.0000000000
     14033       114  CHL1      H12A            2.3118943103       13.4001656134      -10.3565500000  MEMB      114             0.0000000000
     14034       114  CHL1      H12B            1.2575679100       14.3427284603      -11.4818900000  MEMB      114             0.0000000000
     14035       114  CHL1      C11             3.3349646058       13.9066910462      -12.1819400000  MEMB      114             0.0000000000
     14036       114  CHL1      H11A            4.2879477498       13.8528163294      -11.6133900000  MEMB      114             0.0000000000
     14037       114  CHL1      H11B            3.1532577125       12.9514657742      -12.7193900000  MEMB      114             0.0000000000
     14038       114  CHL1      C9              3.4473097610       15.0763130713      -13.2504400000  MEMB      114             0.0000000000
     14039       114  CHL1      H9              2.4169767294       14.9750186759      -13.6535300000  MEMB      114             0.0000000000
     14040       114  CHL1      C10             4.4583193244       14.7138455815      -14.3739800000  MEMB      114             0.0000000000
     14041       114  CHL1      C19             5.9008360662       14.5374217465      -13.8172300000  MEMB      114             0.0000000000
     14042       114  CHL1      H19A            6.0689287652       15.4638933559      -13.2275500000  MEMB      114             0.0000000000
     14043       114  CHL1      H19B            6.0731261390       13.6098973133      -13.2304400000  MEMB      114             0.0000000000
     14044       114  CHL1      H19C            6.6376727835       14.6471354517      -14.6414700000  MEMB      114             0.0000000000
     14045       114  CHL1      C1              3.9237238209       13.4282373530      -15.0789400000  MEMB      114             0.0000000000
     14046       114  CHL1      H1A             4.0820377635       12.5046387172      -14.4821000000  MEMB      114             0.0000000000
     14047       114  CHL1      H1B             2.8338002912       13.5420446692      -15.2618000000  MEMB      114             0.0000000000
     14048       114  CHL1      C2              4.5813621054       13.1231741260      -16.4087600000  MEMB      114             0.0000000000
     14049       114  CHL1      H2A             4.2238349089       12.1758012344      -16.8659100000  MEMB      114             0.0000000000
     14050       114  CHL1      H2B             5.6688885522       13.0854241625      -16.1847800000  MEMB      114             0.0000000000
     14051       114  CHL1      C20             1.7661815942       15.4319458133       -7.9304900000  MEMB      114             0.0000000000
     14052       114  CHL1      H20             2.7882579647       15.6096071476       -7.5328300000  MEMB      114             0.0000000000
     14053       114  CHL1      C21             1.5450175283       13.8779412778       -8.0109500000  MEMB      114             0.0000000000
     14054       114  CHL1      H21A            2.4395730822       13.3516865292       -8.4073800000  MEMB      114             0.0000000000
     14055       114  CHL1      H21B            0.5828614224       13.6404118822       -8.5131000000  MEMB      114             0.0000000000
     14056       114  CHL1      H21C            1.3786297771       13.5599344017       -6.9595200000  MEMB      114             0.0000000000
     14057       114  CHL1      C22             0.7931819958       16.1307812260       -6.9027100000  MEMB      114             0.0000000000
     14058       114  CHL1      H22A            0.7765719802       17.2361054725       -7.0136300000  MEMB      114             0.0000000000
     14059       114  CHL1      H22B           -0.1316487362       15.6119044755       -7.2340500000  MEMB      114             0.0000000000
     14060       114  CHL1      C23             1.0911224812       15.7650125318       -5.3837100000  MEMB      114             0.0000000000
     14061       114  CHL1      H23A            1.7037674321       14.8396478639       -5.3318800000  MEMB      114             0.0000000000
     14062       114  CHL1      H23B            1.7669714169       16.4557157507       -4.8355300000  MEMB      114             0.0000000000
     14063       114  CHL1      C24            -0.2759115040       15.5478238832       -4.6895300000  MEMB      114             0.0000000000
     14064       114  CHL1      H24A           -0.8262094682       16.5024839252       -4.5477000000  MEMB      114             0.0000000000
     14065       114  CHL1      H24B           -0.9186863548       14.9039802696       -5.3272100000  MEMB      114             0.0000000000
     14066       114  CHL1      C25             0.0190327304       14.8452734715       -3.3481300000  MEMB      114             0.0000000000
     14067       114  CHL1      H25             0.8097559307       14.1015771937       -3.5847300000  MEMB      114             0.0000000000
     14068       114  CHL1      C26             0.5638603785       15.8085444815       -2.2856200000  MEMB      114             0.0000000000
     14069       114  CHL1      H26A           -0.1589604833       16.6442909304       -2.1699800000  MEMB      114             0.0000000000
     14070       114  CHL1      H26B            0.6789102631       15.3997655587       -1.2589800000  MEMB      114             0.0000000000
     14071       114  CHL1      H26C            1.4850209532       16.2599980902       -2.7122100000  MEMB      114             0.0000000000
     14072       114  CHL1      C27            -1.1285920690       14.1407878081       -2.7434000000  MEMB      114             0.0000000000
     14073       114  CHL1      H27A           -0.8077567377       13.3314539032       -2.0532100000  MEMB      114             0.0000000000
     14074       114  CHL1      H27B           -1.9319492462       14.7612073458       -2.2917300000  MEMB      114             0.0000000000
     14075       114  CHL1      H27C           -1.6391664330       13.5585990346       -3.5400700000  MEMB      114             0.0000000000
     14076       115  DOPE      N             -14.1423241387        4.7521839113      -20.2400411430  MEMB      115             0.0000000000
     14077       115  DOPE      HN1           -13.1837129587        4.5221026221      -20.5712920230  MEMB      115             0.0000000000
     14078       115  DOPE      HN2           -14.6271919560        3.8367846599      -20.3324945587  MEMB      115             0.0000000000
     14079       115  DOPE      HN3           -14.7143230970        5.3112865119      -20.9047376787  MEMB      115             0.0000000000
     14080       115  DOPE      C12           -14.1209976630        5.1012859026      -18.7345832675  MEMB      115             0.0000000000
     14081       115  DOPE      H12A          -13.4090281470        5.9538263513      -18.7101911223  MEMB      115             0.0000000000
     14082       115  DOPE      H12B          -13.7805174782        4.1759317985      -18.2226126894  MEMB      115             0.0000000000
     14083       115  DOPE      C11           -15.5513829477        5.4285956323      -18.2111300185  MEMB      115             0.0000000000
     14084       115  DOPE      H11A          -15.6868264534        5.2480574923      -17.1232963700  MEMB      115             0.0000000000
     14085       115  DOPE      H11B          -16.2762174050        4.7120663070      -18.6533083533  MEMB      115             0.0000000000
     14086       115  DOPE      P             -17.3082087971        7.1969404330      -19.0431691123  MEMB      115             0.0000000000
     14087       115  DOPE      O13           -17.6155431640        6.6556853358      -20.3449966074  MEMB      115             0.0000000000
     14088       115  DOPE      O14           -17.5770983525        8.6282441148      -18.8872230478  MEMB      115             0.0000000000
     14089       115  DOPE      O11           -18.2017731032        6.4031444035      -18.0412536652  MEMB      115             0.0000000000
     14090       115  DOPE      O12           -15.8781894093        6.7911457806      -18.4976031727  MEMB      115             0.0000000000
     14091       115  DOPE      C1            -19.0033614417        7.0026535093      -17.0972290255  MEMB      115             0.0000000000
     14092       115  DOPE      HA            -20.0128263737        6.5389892622      -17.0794278174  MEMB      115             0.0000000000
     14093       115  DOPE      HB            -19.2140107009        8.0772143879      -17.2850239705  MEMB      115             0.0000000000
     14094       115  DOPE      C2            -18.3797807197        6.9055407312      -15.6517569836  MEMB      115             0.0000000000
     14095       115  DOPE      HS            -18.9772549606        7.5298944778      -14.9535250818  MEMB      115             0.0000000000
     14096       115  DOPE      O21           -17.0451278865        7.4077437973      -15.6397120027  MEMB      115             0.0000000000
     14097       115  DOPE      C21           -16.7476367941        8.6407410532      -15.4356701235  MEMB      115             0.0000000000
     14098       115  DOPE      O22           -17.5326737040        9.5582936487      -15.4031023709  MEMB      115             0.0000000000
     14099       115  DOPE      C22           -15.2991509990        8.8214159043      -15.0214961656  MEMB      115             0.0000000000
     14100       115  DOPE      H2R           -15.0953294217        9.9096516997      -14.9291895161  MEMB      115             0.0000000000
     14101       115  DOPE      H2S           -14.6580042224        8.2320458461      -15.7113473420  MEMB      115             0.0000000000
     14102       115  DOPE      C3            -18.3448607619        5.4639332503      -15.1587985051  MEMB      115             0.0000000000
     14103       115  DOPE      HX            -18.1189234933        4.6845349031      -15.9176208773  MEMB      115             0.0000000000
     14104       115  DOPE      HY            -19.4075971031        5.2592534000      -14.9077630399  MEMB      115             0.0000000000
     14105       115  DOPE      O31           -17.6500600959        5.4143384140      -13.8790267787  MEMB      115             0.0000000000
     14106       115  DOPE      C31           -18.2701009840        4.8529904220      -12.7970939387  MEMB      115             0.0000000000
     14107       115  DOPE      O32           -19.4601660977        4.5761305177      -12.6373352198  MEMB      115             0.0000000000
     14108       115  DOPE      C32           -17.2278216964        5.0731627714      -11.6845118147  MEMB      115             0.0000000000
     14109       115  DOPE      H2X           -16.1798085800        4.9022690825      -12.0112912108  MEMB      115             0.0000000000
     14110       115  DOPE      H2Y           -17.2639367385        6.1034339829      -11.2703162143  MEMB      115             0.0000000000
     14111       115  DOPE      C23           -15.1059670756        8.2434343172      -13.6183525239  MEMB      115             0.0000000000
     14112       115  DOPE      H3R           -15.4436023966        7.1850548945      -13.6308598332  MEMB      115             0.0000000000
     14113       115  DOPE      H3S           -15.7201206278        8.8433913717      -12.9132368802  MEMB      115             0.0000000000
     14114       115  DOPE      C24           -13.6628982119        8.4946506454      -13.1016311954  MEMB      115             0.0000000000
     14115       115  DOPE      H4R           -13.6122653824        9.6044759210      -13.1083525832  MEMB      115             0.0000000000
     14116       115  DOPE      H4S           -12.9039697356        8.0836451959      -13.8012188822  MEMB      115             0.0000000000
     14117       115  DOPE      C25           -13.3378782824        8.0801587009      -11.6603989874  MEMB      115             0.0000000000
     14118       115  DOPE      H5R           -14.2514389871        8.4118040392      -11.1221249607  MEMB      115             0.0000000000
     14119       115  DOPE      H5S           -12.5990091361        8.8191301337      -11.2831533951  MEMB      115             0.0000000000
     14120       115  DOPE      C26           -13.0528644264        6.6229856212      -11.5635095781  MEMB      115             0.0000000000
     14121       115  DOPE      H6R           -12.0670078674        6.4111073485      -12.0298949529  MEMB      115             0.0000000000
     14122       115  DOPE      H6S           -13.8189231587        6.0325848943      -12.1102289131  MEMB      115             0.0000000000
     14123       115  DOPE      C27           -12.9602847196        6.1766649573      -10.0311102223  MEMB      115             0.0000000000
     14124       115  DOPE      H7R           -12.2242004314        6.6983496170       -9.3827692273  MEMB      115             0.0000000000
     14125       115  DOPE      H7S           -12.7814551875        5.0813189556      -10.0816881755  MEMB      115             0.0000000000
     14126       115  DOPE      C28           -14.2819846686        6.3015488009       -9.2196685975  MEMB      115             0.0000000000
     14127       115  DOPE      H8R           -14.9522574518        5.5699305416       -9.7194590088  MEMB      115             0.0000000000
     14128       115  DOPE      H8S           -14.7412256704        7.3082887800       -9.3191339577  MEMB      115             0.0000000000
     14129       115  DOPE      C29           -14.2679709317        5.9371732796       -7.7520887664  MEMB      115             0.0000000000
     14130       115  DOPE      H9R           -13.7103410387        5.0041140822       -7.5834201815  MEMB      115             0.0000000000
     14131       115  DOPE      C210          -14.7555667736        6.7446920412       -6.7549964583  MEMB      115             0.0000000000
     14132       115  DOPE      H10R          -14.7711659961        6.2928144795       -5.7522183221  MEMB      115             0.0000000000
     14133       115  DOPE      C211          -15.4491675004        8.0205368949       -6.9016337246  MEMB      115             0.0000000000
     14134       115  DOPE      H11R          -15.0113158900        8.5546244263       -7.7718975192  MEMB      115             0.0000000000
     14135       115  DOPE      H11S          -15.0503610564        8.7186691085       -6.1348975841  MEMB      115             0.0000000000
     14136       115  DOPE      C212          -16.9729626623        8.0444043947       -7.0918508928  MEMB      115             0.0000000000
     14137       115  DOPE      H12R          -17.1904204475        7.5404293538       -8.0577922183  MEMB      115             0.0000000000
     14138       115  DOPE      H12S          -17.2490392764        9.0977412374       -7.3122692809  MEMB      115             0.0000000000
     14139       115  DOPE      C213          -17.8246617481        7.5162636659       -5.9236163358  MEMB      115             0.0000000000
     14140       115  DOPE      H13R          -17.6806373823        6.4491209411       -5.6501494725  MEMB      115             0.0000000000
     14141       115  DOPE      H13S          -18.8797603668        7.4565060711       -6.2664230123  MEMB      115             0.0000000000
     14142       115  DOPE      C214          -17.7568444111        8.3454503202       -4.6306004440  MEMB      115             0.0000000000
     14143       115  DOPE      H14R          -18.2346721736        9.3323650635       -4.8094879643  MEMB      115             0.0000000000
     14144       115  DOPE      H14S          -16.7072863845        8.5730989872       -4.3461277431  MEMB      115             0.0000000000
     14145       115  DOPE      C215          -18.4389242602        7.6239922333       -3.4690348393  MEMB      115             0.0000000000
     14146       115  DOPE      H15R          -17.8916705955        6.6622037715       -3.3700538727  MEMB      115             0.0000000000
     14147       115  DOPE      H15S          -19.5196900442        7.4386203722       -3.6476516478  MEMB      115             0.0000000000
     14148       115  DOPE      C216          -18.4293104127        8.3519176669       -2.1449807783  MEMB      115             0.0000000000
     14149       115  DOPE      H16R          -19.1998743803        9.1492445342       -2.0755418082  MEMB      115             0.0000000000
     14150       115  DOPE      H16S          -17.3745474296        8.6576636353       -1.9767084885  MEMB      115             0.0000000000
     14151       115  DOPE      C217          -19.0846548946        7.5420317086       -0.9337602165  MEMB      115             0.0000000000
     14152       115  DOPE      H17R          -19.9602843738        6.9912061875       -1.3389575531  MEMB      115             0.0000000000
     14153       115  DOPE      H17S          -19.4188609361        8.3222482687       -0.2168982857  MEMB      115             0.0000000000
     14154       115  DOPE      C218          -18.1407246390        6.5968644532       -0.1658453720  MEMB      115             0.0000000000
     14155       115  DOPE      H18R          -18.5526270690        6.3589326925        0.8381690375  MEMB      115             0.0000000000
     14156       115  DOPE      H18S          -17.1353689398        7.0257544731        0.0332386501  MEMB      115             0.0000000000
     14157       115  DOPE      H18T          -17.9913054990        5.6953911530       -0.7977791847  MEMB      115             0.0000000000
     14158       115  DOPE      C33           -17.4805759776        4.1922721521      -10.4071321978  MEMB      115             0.0000000000
     14159       115  DOPE      H3X           -18.5529992001        4.2065754586      -10.1172619967  MEMB      115             0.0000000000
     14160       115  DOPE      H3Y           -16.9342864455        4.6661763397       -9.5637440023  MEMB      115             0.0000000000
     14161       115  DOPE      C34           -16.8939832516        2.7529440412      -10.3914811065  MEMB      115             0.0000000000
     14162       115  DOPE      H4X           -17.2259439526        2.2996278763      -11.3499317104  MEMB      115             0.0000000000
     14163       115  DOPE      H4Y           -15.7902046992        2.8793973044      -10.3933577895  MEMB      115             0.0000000000
     14164       115  DOPE      C35           -17.1779656772        1.8636311322       -9.1434654944  MEMB      115             0.0000000000
     14165       115  DOPE      H5X           -16.5805744943        0.9476983601       -9.3397087877  MEMB      115             0.0000000000
     14166       115  DOPE      H5Y           -18.2468960763        1.5680520814       -9.2093593988  MEMB      115             0.0000000000
     14167       115  DOPE      C36           -16.8639737275        2.5422843847       -7.7932875864  MEMB      115             0.0000000000
     14168       115  DOPE      H6X           -16.0296922511        3.2497099313       -7.9878232114  MEMB      115             0.0000000000
     14169       115  DOPE      H6Y           -16.4825583204        1.8171362651       -7.0429513312  MEMB      115             0.0000000000
     14170       115  DOPE      C37           -18.0629356474        3.2240334743       -7.1614545526  MEMB      115             0.0000000000
     14171       115  DOPE      H7X           -18.4242380290        4.1677413920       -7.6231870521  MEMB      115             0.0000000000
     14172       115  DOPE      H7Y           -18.8958103720        2.4903601872       -7.1128305350  MEMB      115             0.0000000000
     14173       115  DOPE      C38           -17.7141164339        3.6173108126       -5.6287263283  MEMB      115             0.0000000000
     14174       115  DOPE      H8X           -18.3374298285        4.4761798276       -5.2998711837  MEMB      115             0.0000000000
     14175       115  DOPE      H8Y           -16.7375832782        4.0477772100       -5.9375985902  MEMB      115             0.0000000000
     14176       115  DOPE      C39           -17.6313490223        2.4433317771       -4.7005426891  MEMB      115             0.0000000000
     14177       115  DOPE      H9X           -18.4725770402        1.7434014513       -4.5890381183  MEMB      115             0.0000000000
     14178       115  DOPE      C310          -16.5865909622        2.1839461104       -3.8767678899  MEMB      115             0.0000000000
     14179       115  DOPE      H10X          -16.6767522515        1.3094811935       -3.2155701978  MEMB      115             0.0000000000
     14180       115  DOPE      C311          -15.3353271944        3.0117188928       -3.7366916261  MEMB      115             0.0000000000
     14181       115  DOPE      H11X          -14.6635474033        2.6773296575       -4.5559697526  MEMB      115             0.0000000000
     14182       115  DOPE      H11Y          -15.6077683443        3.9914342234       -4.1841903448  MEMB      115             0.0000000000
     14183       115  DOPE      C312          -14.6988499804        3.0271004504       -2.2567794737  MEMB      115             0.0000000000
     14184       115  DOPE      H12X          -14.8149876384        1.9744495771       -1.9209831934  MEMB      115             0.0000000000
     14185       115  DOPE      H12Y          -15.4252056333        3.6085613386       -1.6496290590  MEMB      115             0.0000000000
     14186       115  DOPE      C313          -13.2814924428        3.4105145656       -2.1876910128  MEMB      115             0.0000000000
     14187       115  DOPE      H13X          -12.9435345226        3.1926533553       -1.1520062736  MEMB      115             0.0000000000
     14188       115  DOPE      H13Y          -12.6998932961        2.8308322516       -2.9360447916  MEMB      115             0.0000000000
     14189       115  DOPE      C314          -13.1742146196        4.8592497348       -2.5559790747  MEMB      115             0.0000000000
     14190       115  DOPE      H14X          -13.8755190620        5.0471770971       -3.3969163049  MEMB      115             0.0000000000
     14191       115  DOPE      H14Y          -12.1154530819        5.0148351197       -2.8545377901  MEMB      115             0.0000000000
     14192       115  DOPE      C315          -13.2434281369        5.8342906380       -1.3348022277  MEMB      115             0.0000000000
     14193       115  DOPE      H15X          -12.4975521925        5.6071222892       -0.5433585208  MEMB      115             0.0000000000
     14194       115  DOPE      H15Y          -14.2627349224        5.7126940224       -0.9098910163  MEMB      115             0.0000000000
     14195       115  DOPE      C316          -13.1585879287        7.3077675013       -1.7384132678  MEMB      115             0.0000000000
     14196       115  DOPE      H16X          -14.0719043703        7.6388262535       -2.2774624487  MEMB      115             0.0000000000
     14197       115  DOPE      H16Y          -12.3026641701        7.5048682215       -2.4187558461  MEMB      115             0.0000000000
     14198       115  DOPE      C317          -12.8621507575        8.2630948365       -0.4949508982  MEMB      115             0.0000000000
     14199       115  DOPE      H17X          -11.8690877543        8.0135906714       -0.0637972036  MEMB      115             0.0000000000
     14200       115  DOPE      H17Y          -12.8951179442        9.3492130421       -0.7264270499  MEMB      115             0.0000000000
     14201       115  DOPE      C318          -13.9650735652        8.0918424478        0.6470165948  MEMB      115             0.0000000000
     14202       115  DOPE      H18X          -13.9466163957        7.0274814971        0.9650029136  MEMB      115             0.0000000000
     14203       115  DOPE      H18Y          -13.8485622606        8.8039421367        1.4918010674  MEMB      115             0.0000000000
     14204       115  DOPE      H18Z          -14.9856301014        8.1606300698        0.2133657648  MEMB      115             0.0000000000
     14205       116  CHL1      C3            -12.3370415780       13.0275953129      -17.3600800000  MEMB      116             0.0000000000
     14206       116  CHL1      H3            -12.2888036257       11.9177191943      -17.3733400000  MEMB      116             0.0000000000
     14207       116  CHL1      O3            -12.3532618220       13.5908758871      -18.6399200000  MEMB      116             0.0000000000
     14208       116  CHL1      H3'           -12.6541124617       12.8675251067      -19.1947700000  MEMB      116             0.0000000000
     14209       116  CHL1      C4            -13.6854309704       13.4298562834      -16.7069300000  MEMB      116             0.0000000000
     14210       116  CHL1      H4A           -13.8242891303       14.5220279913      -16.8558900000  MEMB      116             0.0000000000
     14211       116  CHL1      H4B           -14.4089060395       12.7969361428      -17.2640000000  MEMB      116             0.0000000000
     14212       116  CHL1      C5            -13.7248802726       13.1787960009      -15.2474600000  MEMB      116             0.0000000000
     14213       116  CHL1      C6            -14.7810771375       12.4786673220      -14.6900600000  MEMB      116             0.0000000000
     14214       116  CHL1      H6            -15.5637840887       12.0999251966      -15.3638100000  MEMB      116             0.0000000000
     14215       116  CHL1      C7            -14.8586878084       12.1073233995      -13.2683900000  MEMB      116             0.0000000000
     14216       116  CHL1      H7A           -15.9038424950       12.1802672728      -12.8987100000  MEMB      116             0.0000000000
     14217       116  CHL1      H7B           -14.5786491147       11.0322096225      -13.2733700000  MEMB      116             0.0000000000
     14218       116  CHL1      C8            -13.8935002157       12.8624519918      -12.4235300000  MEMB      116             0.0000000000
     14219       116  CHL1      H8            -14.3216842141       13.8757157173      -12.2676800000  MEMB      116             0.0000000000
     14220       116  CHL1      C14           -13.7087319473       12.1357304859      -11.0546000000  MEMB      116             0.0000000000
     14221       116  CHL1      H14           -13.0779135397       11.2666599676      -11.3394000000  MEMB      116             0.0000000000
     14222       116  CHL1      C15           -14.9951281137       11.7255701783      -10.3408300000  MEMB      116             0.0000000000
     14223       116  CHL1      H15A          -15.6393478819       12.6223223735      -10.4638400000  MEMB      116             0.0000000000
     14224       116  CHL1      H15B          -15.3369899684       10.7169092916      -10.6571300000  MEMB      116             0.0000000000
     14225       116  CHL1      C16           -14.7054557358       11.7888048869       -8.8449100000  MEMB      116             0.0000000000
     14226       116  CHL1      H16A          -15.4870259779       12.4155583047       -8.3646300000  MEMB      116             0.0000000000
     14227       116  CHL1      H16B          -14.8230557488       10.7510233942       -8.4661100000  MEMB      116             0.0000000000
     14228       116  CHL1      C17           -13.1493279956       12.1514300601       -8.7902400000  MEMB      116             0.0000000000
     14229       116  CHL1      H17           -12.5016497279       11.2599251481       -8.9318200000  MEMB      116             0.0000000000
     14230       116  CHL1      C13           -12.9201494018       12.9989438992      -10.0703400000  MEMB      116             0.0000000000
     14231       116  CHL1      C18           -13.6131741699       14.3410662735       -9.7681800000  MEMB      116             0.0000000000
     14232       116  CHL1      H18A          -13.7012289375       14.9453654197      -10.6962900000  MEMB      116             0.0000000000
     14233       116  CHL1      H18B          -14.6424186984       14.2343155441       -9.3637200000  MEMB      116             0.0000000000
     14234       116  CHL1      H18C          -12.9957966077       15.0305469927       -9.1535400000  MEMB      116             0.0000000000
     14235       116  CHL1      C12           -11.5342568333       13.0904733675      -10.6851000000  MEMB      116             0.0000000000
     14236       116  CHL1      H12A          -10.9055573316       13.7110630612      -10.0113600000  MEMB      116             0.0000000000
     14237       116  CHL1      H12B          -11.0021403311       12.1285360286      -10.5243300000  MEMB      116             0.0000000000
     14238       116  CHL1      C11           -11.4887620312       13.6436211446      -12.0829100000  MEMB      116             0.0000000000
     14239       116  CHL1      H11A          -11.8428240335       14.6916222200      -11.9797700000  MEMB      116             0.0000000000
     14240       116  CHL1      H11B          -10.4258781918       13.4928008067      -12.3690200000  MEMB      116             0.0000000000
     14241       116  CHL1      C9            -12.4520348472       12.9774347584      -13.0429000000  MEMB      116             0.0000000000
     14242       116  CHL1      H9            -12.2063258879       11.9005056743      -13.1620000000  MEMB      116             0.0000000000
     14243       116  CHL1      C10           -12.5061222765       13.5960670698      -14.4654300000  MEMB      116             0.0000000000
     14244       116  CHL1      C19           -12.5922546313       15.1735042611      -14.2794100000  MEMB      116             0.0000000000
     14245       116  CHL1      H19A          -12.8497184716       15.6944840993      -15.2263100000  MEMB      116             0.0000000000
     14246       116  CHL1      H19B          -13.3498352532       15.4205234421      -13.5052300000  MEMB      116             0.0000000000
     14247       116  CHL1      H19C          -11.6498054675       15.6362050026      -13.9160600000  MEMB      116             0.0000000000
     14248       116  CHL1      C1            -11.1806959089       13.2287954074      -15.1211400000  MEMB      116             0.0000000000
     14249       116  CHL1      H1A           -10.3611550183       13.6808884504      -14.5225600000  MEMB      116             0.0000000000
     14250       116  CHL1      H1B           -10.9821986028       12.1363147478      -15.0837400000  MEMB      116             0.0000000000
     14251       116  CHL1      C2            -11.1378028972       13.5959550326      -16.6335500000  MEMB      116             0.0000000000
     14252       116  CHL1      H2A           -10.1413140522       13.2738419880      -17.0044600000  MEMB      116             0.0000000000
     14253       116  CHL1      H2B           -11.1012977048       14.6951071018      -16.7911700000  MEMB      116             0.0000000000
     14254       116  CHL1      C20           -12.8279517640       12.7447384317       -7.3700500000  MEMB      116             0.0000000000
     14255       116  CHL1      H20           -13.5111838443       13.5946037470       -7.1573100000  MEMB      116             0.0000000000
     14256       116  CHL1      C21           -11.4517798916       13.4586771135       -7.3111700000  MEMB      116             0.0000000000
     14257       116  CHL1      H21A          -10.6076567627       12.7757490782       -7.5465400000  MEMB      116             0.0000000000
     14258       116  CHL1      H21B          -11.2664824567       13.9069931305       -6.3116800000  MEMB      116             0.0000000000
     14259       116  CHL1      H21C          -11.4800187837       14.3665452032       -7.9509400000  MEMB      116             0.0000000000
     14260       116  CHL1      C22           -12.9815012858       11.6181326804       -6.3268400000  MEMB      116             0.0000000000
     14261       116  CHL1      H22A          -14.0455245188       11.2995785050       -6.3532900000  MEMB      116             0.0000000000
     14262       116  CHL1      H22B          -12.3516179647       10.7148815402       -6.4741500000  MEMB      116             0.0000000000
     14263       116  CHL1      C23           -12.8756067106       12.1386879753       -4.8460800000  MEMB      116             0.0000000000
     14264       116  CHL1      H23A          -11.9220312106       12.5913560530       -4.4995100000  MEMB      116             0.0000000000
     14265       116  CHL1      H23B          -13.5775543052       12.9970526978       -4.7767300000  MEMB      116             0.0000000000
     14266       116  CHL1      C24           -13.3303371266       11.0505938811       -3.8430300000  MEMB      116             0.0000000000
     14267       116  CHL1      H24A          -14.4104870888       10.7934694917       -3.8815200000  MEMB      116             0.0000000000
     14268       116  CHL1      H24B          -12.7885078832       10.0889426502       -3.9694600000  MEMB      116             0.0000000000
     14269       116  CHL1      C25           -13.0985064555       11.4276148377       -2.3970400000  MEMB      116             0.0000000000
     14270       116  CHL1      H25           -13.3869621944       10.6123250981       -1.6996100000  MEMB      116             0.0000000000
     14271       116  CHL1      C26           -11.5676087819       11.4789459643       -2.0512900000  MEMB      116             0.0000000000
     14272       116  CHL1      H26A          -11.0046396321       12.3196410613       -2.5102300000  MEMB      116             0.0000000000
     14273       116  CHL1      H26B          -11.4704181686       11.6935192711       -0.9655500000  MEMB      116             0.0000000000
     14274       116  CHL1      H26C          -11.1296949493       10.4627037781       -2.1503000000  MEMB      116             0.0000000000
     14275       116  CHL1      C27           -13.7435190136       12.7945398366       -2.0241700000  MEMB      116             0.0000000000
     14276       116  CHL1      H27A          -13.4527348386       13.5353167896       -2.7994100000  MEMB      116             0.0000000000
     14277       116  CHL1      H27B          -14.8422257022       12.6299395608       -2.0152600000  MEMB      116             0.0000000000
     14278       116  CHL1      H27C          -13.4731530640       13.2210750176       -1.0345800000  MEMB      116             0.0000000000
     14279       117  DOPE      N              19.2979904007       -9.8739609223      -18.3299860788  MEMB      117             0.0000000000
     14280       117  DOPE      HN1            19.5331215806       -9.3934226305      -17.4381360438  MEMB      117             0.0000000000
     14281       117  DOPE      HN2            19.2573450426      -10.8954691006      -18.1390172523  MEMB      117             0.0000000000
     14282       117  DOPE      HN3            20.0349670884       -9.6259874289      -19.0206194424  MEMB      117             0.0000000000
     14283       117  DOPE      C12            17.9569228191       -9.1782497110      -18.8605241344  MEMB      117             0.0000000000
     14284       117  DOPE      H12A           17.2332310119      -10.0192013488      -18.9187631424  MEMB      117             0.0000000000
     14285       117  DOPE      H12B           18.2555370849       -8.8820749165      -19.8888387420  MEMB      117             0.0000000000
     14286       117  DOPE      C11            17.4573012220       -7.9637954224      -17.9967903203  MEMB      117             0.0000000000
     14287       117  DOPE      H11A           18.3654304523       -7.3731383334      -17.7503221710  MEMB      117             0.0000000000
     14288       117  DOPE      H11B           17.0513672227       -8.2898201658      -17.0153391874  MEMB      117             0.0000000000
     14289       117  DOPE      P              16.8253439773       -5.8683486282      -19.4165620368  MEMB      117             0.0000000000
     14290       117  DOPE      O13            15.6528565509       -5.4093928776      -20.1937490944  MEMB      117             0.0000000000
     14291       117  DOPE      O14            18.0112658540       -6.1197783620      -20.2922183256  MEMB      117             0.0000000000
     14292       117  DOPE      O11            17.1300063178       -4.8849921974      -18.2370423970  MEMB      117             0.0000000000
     14293       117  DOPE      O12            16.4192339228       -7.2009667513      -18.6731276150  MEMB      117             0.0000000000
     14294       117  DOPE      C1             18.0426542352       -3.7896524754      -18.5312636635  MEMB      117             0.0000000000
     14295       117  DOPE      HA             17.5883419041       -3.1191755589      -19.2917780484  MEMB      117             0.0000000000
     14296       117  DOPE      HB             19.0248686779       -4.1593890846      -18.8957776286  MEMB      117             0.0000000000
     14297       117  DOPE      C2             18.1561068589       -2.9389054255      -17.2508982814  MEMB      117             0.0000000000
     14298       117  DOPE      HS             18.9635667684       -2.1850818525      -17.3695546789  MEMB      117             0.0000000000
     14299       117  DOPE      O21            18.5147469899       -3.8409211888      -16.1752718913  MEMB      117             0.0000000000
     14300       117  DOPE      C21            19.6686087852       -4.4865849760      -16.2084777755  MEMB      117             0.0000000000
     14301       117  DOPE      O22            20.6766565122       -4.1866497365      -16.8146322479  MEMB      117             0.0000000000
     14302       117  DOPE      C22            19.5343869714       -5.6891587872      -15.3426951568  MEMB      117             0.0000000000
     14303       117  DOPE      H2R            18.8821677284       -6.4891691342      -15.7536874273  MEMB      117             0.0000000000
     14304       117  DOPE      H2S            19.1936835749       -5.4312325000      -14.3171627266  MEMB      117             0.0000000000
     14305       117  DOPE      C3             16.8685113076       -2.1854739732      -16.8867160155  MEMB      117             0.0000000000
     14306       117  DOPE      HX             16.4700826330       -1.6689958834      -17.7860636032  MEMB      117             0.0000000000
     14307       117  DOPE      HY             17.0578669734       -1.3415753603      -16.1893631742  MEMB      117             0.0000000000
     14308       117  DOPE      O31            15.8815810768       -3.1062040295      -16.4226409729  MEMB      117             0.0000000000
     14309       117  DOPE      C31            15.7112911630       -3.3003754196      -15.1100634504  MEMB      117             0.0000000000
     14310       117  DOPE      O32            16.2393983158       -2.6634691052      -14.2079036893  MEMB      117             0.0000000000
     14311       117  DOPE      C32            14.6233995113       -4.2993073828      -14.8632101330  MEMB      117             0.0000000000
     14312       117  DOPE      H2X            13.7348854397       -3.6731280191      -14.6335077206  MEMB      117             0.0000000000
     14313       117  DOPE      H2Y            14.4158494272       -4.9723491247      -15.7224299369  MEMB      117             0.0000000000
     14314       117  DOPE      C23            20.8590630129       -6.5111068198      -15.2486094760  MEMB      117             0.0000000000
     14315       117  DOPE      H3R            21.2723560590       -6.6642959463      -16.2684343092  MEMB      117             0.0000000000
     14316       117  DOPE      H3S            20.6749792146       -7.4615925267      -14.7036223130  MEMB      117             0.0000000000
     14317       117  DOPE      C24            21.9571483966       -5.8359808983      -14.4226015380  MEMB      117             0.0000000000
     14318       117  DOPE      H4R            22.5574602728       -5.0456354631      -14.9219021743  MEMB      117             0.0000000000
     14319       117  DOPE      H4S            22.7030268286       -6.6440913554      -14.2646642055  MEMB      117             0.0000000000
     14320       117  DOPE      C25            21.3862363701       -5.7136950641      -12.9751318796  MEMB      117             0.0000000000
     14321       117  DOPE      H5R            20.7394459801       -6.6083839660      -12.8505719258  MEMB      117             0.0000000000
     14322       117  DOPE      H5S            20.8112914987       -4.7715864137      -13.1023746245  MEMB      117             0.0000000000
     14323       117  DOPE      C26            22.3607509332       -5.4933872045      -11.8079454634  MEMB      117             0.0000000000
     14324       117  DOPE      H6R            22.9607484232       -4.5755429345      -11.9865120489  MEMB      117             0.0000000000
     14325       117  DOPE      H6S            23.0244537524       -6.3842542183      -11.8212017704  MEMB      117             0.0000000000
     14326       117  DOPE      C27            21.5947976514       -5.3014432714      -10.4487550683  MEMB      117             0.0000000000
     14327       117  DOPE      H7R            20.8517146841       -4.4761086321      -10.4799148843  MEMB      117             0.0000000000
     14328       117  DOPE      H7S            22.3280636989       -5.0490907580       -9.6531672618  MEMB      117             0.0000000000
     14329       117  DOPE      C28            20.7367996817       -6.5082322911       -9.9499148453  MEMB      117             0.0000000000
     14330       117  DOPE      H8R            21.3224417394       -7.3787670804       -9.5845198777  MEMB      117             0.0000000000
     14331       117  DOPE      H8S            20.0153041307       -6.8476623944      -10.7235763140  MEMB      117             0.0000000000
     14332       117  DOPE      C29            19.9149024425       -5.9657966105       -8.7974300225  MEMB      117             0.0000000000
     14333       117  DOPE      H9R            19.4988477395       -4.9837302624       -9.0665857297  MEMB      117             0.0000000000
     14334       117  DOPE      C210           19.5336541666       -6.5526249651       -7.6080043235  MEMB      117             0.0000000000
     14335       117  DOPE      H10R           18.8823794744       -5.9450149251       -6.9625191811  MEMB      117             0.0000000000
     14336       117  DOPE      C211           19.9342206715       -7.9544715665       -7.1871108048  MEMB      117             0.0000000000
     14337       117  DOPE      H11R           19.5958960130       -8.7525127556       -7.8820841437  MEMB      117             0.0000000000
     14338       117  DOPE      H11S           19.4802284754       -8.0398995065       -6.1767075131  MEMB      117             0.0000000000
     14339       117  DOPE      C212           21.4392387313       -8.2065351333       -6.8804443907  MEMB      117             0.0000000000
     14340       117  DOPE      H12R           22.0581427478       -8.1099031503       -7.7980176399  MEMB      117             0.0000000000
     14341       117  DOPE      H12S           21.4617800325       -9.2326745504       -6.4551788445  MEMB      117             0.0000000000
     14342       117  DOPE      C213           22.0786181506       -7.3634043843       -5.7951349825  MEMB      117             0.0000000000
     14343       117  DOPE      H13R           22.1139269068       -6.2882441587       -6.0728128814  MEMB      117             0.0000000000
     14344       117  DOPE      H13S           23.1649790267       -7.5943534096       -5.8234827510  MEMB      117             0.0000000000
     14345       117  DOPE      C214           21.4382346083       -7.4837472262       -4.4145760364  MEMB      117             0.0000000000
     14346       117  DOPE      H14R           21.6129167906       -8.4498588718       -3.8945416140  MEMB      117             0.0000000000
     14347       117  DOPE      H14S           20.3352883545       -7.3586274272       -4.4612255500  MEMB      117             0.0000000000
     14348       117  DOPE      C215           21.9451024844       -6.4243586882       -3.4057697015  MEMB      117             0.0000000000
     14349       117  DOPE      H15R           22.0321691727       -5.4147836562       -3.8612893065  MEMB      117             0.0000000000
     14350       117  DOPE      H15S           22.9601079898       -6.7722232202       -3.1175434793  MEMB      117             0.0000000000
     14351       117  DOPE      C216           21.1168896015       -6.3212122563       -2.0905736538  MEMB      117             0.0000000000
     14352       117  DOPE      H16R           20.0655538738       -6.1532476485       -2.4080665953  MEMB      117             0.0000000000
     14353       117  DOPE      H16S           21.4289939196       -5.3521057174       -1.6458888286  MEMB      117             0.0000000000
     14354       117  DOPE      C217           21.1324182381       -7.4947483504       -1.1510394234  MEMB      117             0.0000000000
     14355       117  DOPE      H17R           22.2042015030       -7.7870356641       -1.1380224725  MEMB      117             0.0000000000
     14356       117  DOPE      H17S           20.6466824679       -8.4066541814       -1.5594625010  MEMB      117             0.0000000000
     14357       117  DOPE      C218           20.6369323601       -7.3479502968        0.2940733379  MEMB      117             0.0000000000
     14358       117  DOPE      H18R           19.5261606205       -7.3400890003        0.2729687761  MEMB      117             0.0000000000
     14359       117  DOPE      H18S           20.9374371773       -6.3911268807        0.7720966911  MEMB      117             0.0000000000
     14360       117  DOPE      H18T           20.9567909395       -8.2111692310        0.9160571411  MEMB      117             0.0000000000
     14361       117  DOPE      C33            14.9082693629       -5.1112789338      -13.5857432690  MEMB      117             0.0000000000
     14362       117  DOPE      H3X            15.3616920022       -4.4320537410      -12.8324954340  MEMB      117             0.0000000000
     14363       117  DOPE      H3Y            15.8156869959       -5.6523873243      -13.9294231854  MEMB      117             0.0000000000
     14364       117  DOPE      C34            13.8449717885       -6.0714791226      -13.0161479051  MEMB      117             0.0000000000
     14365       117  DOPE      H4X            12.9779191891       -5.4575874615      -12.6910665997  MEMB      117             0.0000000000
     14366       117  DOPE      H4Y            13.4436827433       -6.6112757437      -13.9004032485  MEMB      117             0.0000000000
     14367       117  DOPE      C35            14.2661048293       -7.0034116958      -11.8824898754  MEMB      117             0.0000000000
     14368       117  DOPE      H5X            15.0068775182       -7.6506135933      -12.3989261582  MEMB      117             0.0000000000
     14369       117  DOPE      H5Y            13.3454551916       -7.5644172543      -11.6141652469  MEMB      117             0.0000000000
     14370       117  DOPE      C36            14.9294880466       -6.3844814804      -10.7170061957  MEMB      117             0.0000000000
     14371       117  DOPE      H6X            14.2717538515       -5.6200663610      -10.2507699916  MEMB      117             0.0000000000
     14372       117  DOPE      H6Y            15.8372215062       -5.9011542915      -11.1374059664  MEMB      117             0.0000000000
     14373       117  DOPE      C37            15.5013474858       -7.2190691089       -9.5781532075  MEMB      117             0.0000000000
     14374       117  DOPE      H7X            15.9881788889       -8.0756681052      -10.0915293030  MEMB      117             0.0000000000
     14375       117  DOPE      H7Y            16.3769907706       -6.7805036127       -9.0535296306  MEMB      117             0.0000000000
     14376       117  DOPE      C38            14.2880168444       -7.6849179953       -8.6192748969  MEMB      117             0.0000000000
     14377       117  DOPE      H8X            13.4261282389       -7.7286372947       -9.3189592372  MEMB      117             0.0000000000
     14378       117  DOPE      H8Y            14.2449843431       -6.9002454842       -7.8339350903  MEMB      117             0.0000000000
     14379       117  DOPE      C39            14.4755337514       -9.0933463155       -8.0839366555  MEMB      117             0.0000000000
     14380       117  DOPE      H9X            14.4754773200       -9.9192626066       -8.8104784362  MEMB      117             0.0000000000
     14381       117  DOPE      C310           14.5894215501       -9.5116820571       -6.8211280221  MEMB      117             0.0000000000
     14382       117  DOPE      H10X           14.6653707781      -10.5919283913       -6.6279968328  MEMB      117             0.0000000000
     14383       117  DOPE      C311           14.5282899768       -8.5389541581       -5.7349614970  MEMB      117             0.0000000000
     14384       117  DOPE      H11X           13.8350434196       -7.7145021218       -6.0070071180  MEMB      117             0.0000000000
     14385       117  DOPE      H11Y           14.1224546061       -8.9438607328       -4.7832945024  MEMB      117             0.0000000000
     14386       117  DOPE      C312           15.9531369305       -7.8656120997       -5.4850898998  MEMB      117             0.0000000000
     14387       117  DOPE      H12X           16.1233065958       -7.2546707618       -6.3972927095  MEMB      117             0.0000000000
     14388       117  DOPE      H12Y           16.6738017340       -8.6814081155       -5.2627381493  MEMB      117             0.0000000000
     14389       117  DOPE      C313           15.7863343998       -6.7703736993       -4.3562539585  MEMB      117             0.0000000000
     14390       117  DOPE      H13X           15.1614960383       -5.8858828722       -4.6043940129  MEMB      117             0.0000000000
     14391       117  DOPE      H13Y           15.2140823934       -7.2696893369       -3.5453699625  MEMB      117             0.0000000000
     14392       117  DOPE      C314           17.2023374311       -6.3213826423       -3.8598639613  MEMB      117             0.0000000000
     14393       117  DOPE      H14X           17.7848960133       -5.7867343501       -4.6403113335  MEMB      117             0.0000000000
     14394       117  DOPE      H14Y           17.8232544788       -7.2332608836       -3.7284823408  MEMB      117             0.0000000000
     14395       117  DOPE      C315           17.1193161689       -5.4953608250       -2.6420940210  MEMB      117             0.0000000000
     14396       117  DOPE      H15X           16.4980671832       -4.5935921651       -2.8296676115  MEMB      117             0.0000000000
     14397       117  DOPE      H15Y           18.1677890833       -5.1975101603       -2.4268952575  MEMB      117             0.0000000000
     14398       117  DOPE      C316           16.6411827506       -6.2001270214       -1.4000990901  MEMB      117             0.0000000000
     14399       117  DOPE      H16X           17.3184419438       -7.0345458742       -1.1183417611  MEMB      117             0.0000000000
     14400       117  DOPE      H16Y           15.6111096864       -6.5927428196       -1.5383850474  MEMB      117             0.0000000000
     14401       117  DOPE      C317           16.5177326622       -5.3467551256       -0.1042791539  MEMB      117             0.0000000000
     14402       117  DOPE      H17X           17.4730443681       -4.8248046762        0.1176844558  MEMB      117             0.0000000000
     14403       117  DOPE      H17Y           15.7244423399       -4.6024031069       -0.3300049175  MEMB      117             0.0000000000
     14404       117  DOPE      C318           16.0150626667       -5.9835003353        1.1876095055  MEMB      117             0.0000000000
     14405       117  DOPE      H18X           15.0460868341       -6.5225213639        1.1178721689  MEMB      117             0.0000000000
     14406       117  DOPE      H18Y           16.7686304494       -6.7231928199        1.5330236140  MEMB      117             0.0000000000
     14407       117  DOPE      H18Z           15.7337468728       -5.1338841469        1.8458920329  MEMB      117             0.0000000000
     14408       118  DOPC      N             -17.6033635764       -7.9587044634      -21.0248533247  MEMB      118             0.0000000000
     14409       118  DOPC      C12           -16.5860385611       -8.6323753243      -20.0943408354  MEMB      118             0.0000000000
     14410       118  DOPC      H12A          -15.6546743534       -8.3699873938      -20.5740422205  MEMB      118             0.0000000000
     14411       118  DOPC      H12B          -16.8030461716       -9.6857130209      -20.1932726097  MEMB      118             0.0000000000
     14412       118  DOPC      C13           -17.1882022341       -8.5302682566      -22.4275827378  MEMB      118             0.0000000000
     14413       118  DOPC      H13A          -17.9980716605       -8.2736325562      -23.0944032152  MEMB      118             0.0000000000
     14414       118  DOPC      H13B          -16.2750435106       -8.0664414537      -22.7702281544  MEMB      118             0.0000000000
     14415       118  DOPC      H13C          -17.0888440255       -9.6039398618      -22.3662865958  MEMB      118             0.0000000000
     14416       118  DOPC      C14           -17.6725901839       -6.4574056359      -20.9543428532  MEMB      118             0.0000000000
     14417       118  DOPC      H14A          -17.9393671640       -6.1973551342      -19.9406348890  MEMB      118             0.0000000000
     14418       118  DOPC      H14B          -16.7690227922       -6.0705739920      -21.4019221480  MEMB      118             0.0000000000
     14419       118  DOPC      H14C          -18.5305955889       -6.1114320930      -21.5115942172  MEMB      118             0.0000000000
     14420       118  DOPC      C15           -18.9135066623       -8.4439842854      -20.7910826565  MEMB      118             0.0000000000
     14421       118  DOPC      H15A          -19.2564552639       -8.1055053305      -19.8245330235  MEMB      118             0.0000000000
     14422       118  DOPC      H15B          -18.9740191059       -9.5170621766      -20.6850546462  MEMB      118             0.0000000000
     14423       118  DOPC      H15C          -19.6067181298       -8.0780366129      -21.5340095273  MEMB      118             0.0000000000
     14424       118  DOPC      C11           -16.5315889813       -8.2891666947      -18.5920965790  MEMB      118             0.0000000000
     14425       118  DOPC      H11A          -17.5468192527       -8.5848444818      -18.2512107991  MEMB      118             0.0000000000
     14426       118  DOPC      H11B          -15.7896782646       -8.9879949254      -18.1499102160  MEMB      118             0.0000000000
     14427       118  DOPC      P             -16.2124033238       -6.2377442578      -17.0179835291  MEMB      118             0.0000000000
     14428       118  DOPC      O13           -15.6784542115       -4.8413693944      -17.1419708243  MEMB      118             0.0000000000
     14429       118  DOPC      O14           -15.4093630956       -7.0464846993      -16.0827604455  MEMB      118             0.0000000000
     14430       118  DOPC      O12           -16.3629788841       -6.8839679922      -18.4105462331  MEMB      118             0.0000000000
     14431       118  DOPC      O11           -17.6726018851       -6.2753429906      -16.4624399814  MEMB      118             0.0000000000
     14432       118  DOPC      C1            -18.6553897284       -5.8108313837      -17.3897274017  MEMB      118             0.0000000000
     14433       118  DOPC      HA            -19.0725217086       -6.6805678487      -17.9409808092  MEMB      118             0.0000000000
     14434       118  DOPC      HB            -18.3539020740       -5.0655734473      -18.1565498555  MEMB      118             0.0000000000
     14435       118  DOPC      C2            -19.7157210504       -5.1284615751      -16.4765339213  MEMB      118             0.0000000000
     14436       118  DOPC      HS            -20.4171004264       -4.7122185450      -17.2309410330  MEMB      118             0.0000000000
     14437       118  DOPC      O21           -19.1517527858       -4.2256178371      -15.5220634245  MEMB      118             0.0000000000
     14438       118  DOPC      C21           -19.9718127984       -3.2188604893      -15.2260758423  MEMB      118             0.0000000000
     14439       118  DOPC      O22           -21.0587919295       -3.0398148783      -15.7228561668  MEMB      118             0.0000000000
     14440       118  DOPC      C22           -19.3628794823       -2.5948875491      -13.9782120968  MEMB      118             0.0000000000
     14441       118  DOPC      H2R           -19.5638340583       -3.3269339130      -13.1670109664  MEMB      118             0.0000000000
     14442       118  DOPC      H2S           -19.8853227745       -1.6167274366      -13.9105574740  MEMB      118             0.0000000000
     14443       118  DOPC      C3            -20.5422872061       -6.2197109100      -15.6573129612  MEMB      118             0.0000000000
     14444       118  DOPC      HX            -21.0993671472       -6.8665402695      -16.3683646741  MEMB      118             0.0000000000
     14445       118  DOPC      HY            -21.3769399883       -5.6794643601      -15.1615213805  MEMB      118             0.0000000000
     14446       118  DOPC      O31           -19.7459197568       -6.9559300801      -14.6716515839  MEMB      118             0.0000000000
     14447       118  DOPC      C31           -20.0433374021       -6.7319182478      -13.3705619449  MEMB      118             0.0000000000
     14448       118  DOPC      O32           -20.6551693512       -5.8157236065      -12.8386975108  MEMB      118             0.0000000000
     14449       118  DOPC      C32           -19.3545021259       -7.8037507595      -12.6596987096  MEMB      118             0.0000000000
     14450       118  DOPC      H2X           -19.5825827288       -8.8042982969      -13.0853802292  MEMB      118             0.0000000000
     14451       118  DOPC      H2Y           -18.2439934280       -7.8025939322      -12.6266806642  MEMB      118             0.0000000000
     14452       118  DOPC      C23           -17.8530064411       -2.3739259526      -13.9396125524  MEMB      118             0.0000000000
     14453       118  DOPC      H3R           -17.6555726434       -1.4047345260      -14.4455853629  MEMB      118             0.0000000000
     14454       118  DOPC      H3S           -17.4480249054       -3.2588660221      -14.4755153455  MEMB      118             0.0000000000
     14455       118  DOPC      C24           -17.3277252432       -2.3911692816      -12.5532121370  MEMB      118             0.0000000000
     14456       118  DOPC      H4R           -17.9421341406       -3.1790856984      -12.0674032630  MEMB      118             0.0000000000
     14457       118  DOPC      H4S           -17.5677570877       -1.4530196666      -12.0086196792  MEMB      118             0.0000000000
     14458       118  DOPC      C25           -15.8899219179       -2.8666598231      -12.3723433195  MEMB      118             0.0000000000
     14459       118  DOPC      H5R           -15.4337747644       -1.8547448788      -12.3246142918  MEMB      118             0.0000000000
     14460       118  DOPC      H5S           -15.4743805083       -3.2541423223      -13.3270702736  MEMB      118             0.0000000000
     14461       118  DOPC      C26           -15.4307578045       -3.5212071907      -11.0906299669  MEMB      118             0.0000000000
     14462       118  DOPC      H6R           -14.3606970163       -3.2798424552      -10.9144653778  MEMB      118             0.0000000000
     14463       118  DOPC      H6S           -15.5582430640       -4.6172532675      -11.2200582118  MEMB      118             0.0000000000
     14464       118  DOPC      C27           -16.1639804213       -2.9566711922       -9.9677232343  MEMB      118             0.0000000000
     14465       118  DOPC      H7R           -17.2538078977       -2.9237991054      -10.1810686295  MEMB      118             0.0000000000
     14466       118  DOPC      H7S           -15.8902712885       -1.8816545142       -9.9065418390  MEMB      118             0.0000000000
     14467       118  DOPC      C28           -15.8879640120       -3.6293738572       -8.6879586218  MEMB      118             0.0000000000
     14468       118  DOPC      H8R           -16.3123285098       -3.0872742328       -7.8159701092  MEMB      118             0.0000000000
     14469       118  DOPC      H8S           -14.7845111618       -3.5855401563       -8.5663365707  MEMB      118             0.0000000000
     14470       118  DOPC      C29           -16.2731889901       -5.1289698254       -8.6843286247  MEMB      118             0.0000000000
     14471       118  DOPC      H9R           -15.4702953819       -5.7983370304       -9.0268339005  MEMB      118             0.0000000000
     14472       118  DOPC      C210          -17.4150742672       -5.7423898577       -8.2230819308  MEMB      118             0.0000000000
     14473       118  DOPC      H10R          -17.5994512726       -6.8223361622       -8.3216780486  MEMB      118             0.0000000000
     14474       118  DOPC      C211          -18.5294057634       -4.8712417138       -7.6623608248  MEMB      118             0.0000000000
     14475       118  DOPC      H11R          -19.2511765752       -4.5965923902       -8.4610695082  MEMB      118             0.0000000000
     14476       118  DOPC      H11S          -18.0921803382       -3.9343070174       -7.2557802832  MEMB      118             0.0000000000
     14477       118  DOPC      C212          -19.4399782773       -5.5051823241       -6.6079781427  MEMB      118             0.0000000000
     14478       118  DOPC      H12R          -20.5051130845       -5.2163834813       -6.7360563995  MEMB      118             0.0000000000
     14479       118  DOPC      H12S          -19.0627197368       -5.0795658845       -5.6535948952  MEMB      118             0.0000000000
     14480       118  DOPC      C213          -19.4691463939       -7.0307358163       -6.4946773682  MEMB      118             0.0000000000
     14481       118  DOPC      H13R          -18.4853714717       -7.4738181280       -6.2297511392  MEMB      118             0.0000000000
     14482       118  DOPC      H13S          -19.8649668282       -7.4779668914       -7.4314971763  MEMB      118             0.0000000000
     14483       118  DOPC      C214          -20.4237004262       -7.4336988261       -5.3615586821  MEMB      118             0.0000000000
     14484       118  DOPC      H14R          -21.4512064995       -7.0673412135       -5.5721159832  MEMB      118             0.0000000000
     14485       118  DOPC      H14S          -20.2048467217       -6.8465346476       -4.4441370691  MEMB      118             0.0000000000
     14486       118  DOPC      C215          -20.3275556240       -8.9336309007       -5.0352077057  MEMB      118             0.0000000000
     14487       118  DOPC      H15R          -19.5060910018       -9.2028328169       -4.3373204884  MEMB      118             0.0000000000
     14488       118  DOPC      H15S          -20.1179615973       -9.4895366274       -5.9740156181  MEMB      118             0.0000000000
     14489       118  DOPC      C216          -21.5662949527       -9.5186250283       -4.3307864626  MEMB      118             0.0000000000
     14490       118  DOPC      H16R          -21.5795698563      -10.6265421222       -4.4124242908  MEMB      118             0.0000000000
     14491       118  DOPC      H16S          -22.5064997165       -9.0852355672       -4.7339114538  MEMB      118             0.0000000000
     14492       118  DOPC      C217          -21.5879378705       -9.2847647074       -2.8286954548  MEMB      118             0.0000000000
     14493       118  DOPC      H17R          -22.6259173064       -9.1505917832       -2.4559806460  MEMB      118             0.0000000000
     14494       118  DOPC      H17S          -21.1886683675       -8.2584313201       -2.6819147448  MEMB      118             0.0000000000
     14495       118  DOPC      C218          -20.7212415696      -10.2731341533       -1.9251349662  MEMB      118             0.0000000000
     14496       118  DOPC      H18R          -19.7183957293      -10.3093242101       -2.4019072858  MEMB      118             0.0000000000
     14497       118  DOPC      H18S          -21.1921048053      -11.2792245364       -1.9449023949  MEMB      118             0.0000000000
     14498       118  DOPC      H18T          -20.5720838196       -9.9128993936       -0.8847965196  MEMB      118             0.0000000000
     14499       118  DOPC      C33           -19.9248882689       -7.9332611015      -11.2355526078  MEMB      118             0.0000000000
     14500       118  DOPC      H3X           -20.8445375960       -8.5442445209      -11.3591054853  MEMB      118             0.0000000000
     14501       118  DOPC      H3Y           -20.1820243991       -6.9169827797      -10.8676113363  MEMB      118             0.0000000000
     14502       118  DOPC      C34           -18.9812267294       -8.6183520749      -10.1811537851  MEMB      118             0.0000000000
     14503       118  DOPC      H4X           -19.5121540911       -8.4899225189       -9.2137125606  MEMB      118             0.0000000000
     14504       118  DOPC      H4Y           -18.0115934042       -8.0764526496      -10.1593045612  MEMB      118             0.0000000000
     14505       118  DOPC      C35           -18.6456686130      -10.1202635082      -10.5451299818  MEMB      118             0.0000000000
     14506       118  DOPC      H5X           -18.3854835658      -10.2682276151      -11.6150516611  MEMB      118             0.0000000000
     14507       118  DOPC      H5Y           -19.5661110813      -10.7024887783      -10.3257679435  MEMB      118             0.0000000000
     14508       118  DOPC      C36           -17.5424892744      -10.8705237047       -9.7302930365  MEMB      118             0.0000000000
     14509       118  DOPC      H6X           -17.6891318237      -11.8917634238      -10.1424660575  MEMB      118             0.0000000000
     14510       118  DOPC      H6Y           -16.6348939491      -10.2724227381       -9.9602225507  MEMB      118             0.0000000000
     14511       118  DOPC      C37           -17.6876373395      -10.6796046533       -8.1816097946  MEMB      118             0.0000000000
     14512       118  DOPC      H7X           -17.2228348954       -9.7014746425       -7.9335353205  MEMB      118             0.0000000000
     14513       118  DOPC      H7Y           -18.7746992654      -10.5858048657       -7.9722812977  MEMB      118             0.0000000000
     14514       118  DOPC      C38           -16.8588491896      -11.7008468077       -7.4297247379  MEMB      118             0.0000000000
     14515       118  DOPC      H8X           -15.8047888633      -11.3908040456       -7.5945042974  MEMB      118             0.0000000000
     14516       118  DOPC      H8Y           -16.9813133459      -12.6608996463       -7.9752724664  MEMB      118             0.0000000000
     14517       118  DOPC      C39           -17.2310716071      -11.8383955919       -6.0007722831  MEMB      118             0.0000000000
     14518       118  DOPC      H9X           -18.0480007397      -12.5459925498       -5.7959970728  MEMB      118             0.0000000000
     14519       118  DOPC      C310          -16.6336436709      -11.0951540678       -5.0379895332  MEMB      118             0.0000000000
     14520       118  DOPC      H10X          -16.8104393323      -11.2549673062       -3.9641173395  MEMB      118             0.0000000000
     14521       118  DOPC      C311          -15.5906521201      -10.1372450725       -5.1595788603  MEMB      118             0.0000000000
     14522       118  DOPC      H11X          -15.3322038990       -9.9357035007       -6.2211373238  MEMB      118             0.0000000000
     14523       118  DOPC      H11Y          -14.7332937935      -10.6062532528       -4.6311016648  MEMB      118             0.0000000000
     14524       118  DOPC      C312          -16.0210812584       -8.8449846815       -4.4981338419  MEMB      118             0.0000000000
     14525       118  DOPC      H12X          -17.0646920937       -8.5903237371       -4.7815855638  MEMB      118             0.0000000000
     14526       118  DOPC      H12Y          -15.4227122130       -8.1293997004       -5.1016352330  MEMB      118             0.0000000000
     14527       118  DOPC      C313          -15.5131269018       -8.6803114350       -3.0622712445  MEMB      118             0.0000000000
     14528       118  DOPC      H13X          -16.0702015599       -9.4176724987       -2.4455966125  MEMB      118             0.0000000000
     14529       118  DOPC      H13Y          -14.4320845704       -8.9237148985       -3.1424160399  MEMB      118             0.0000000000
     14530       118  DOPC      C314          -15.7962987058       -7.2333940658       -2.5331834617  MEMB      118             0.0000000000
     14531       118  DOPC      H14X          -15.1973335807       -6.5197933879       -3.1384403543  MEMB      118             0.0000000000
     14532       118  DOPC      H14Y          -16.8793476413       -7.0105760353       -2.6412498566  MEMB      118             0.0000000000
     14533       118  DOPC      C315          -15.4452475885       -7.0630975580       -1.0151398836  MEMB      118             0.0000000000
     14534       118  DOPC      H15X          -15.6796162634       -6.0500077280       -0.6239344283  MEMB      118             0.0000000000
     14535       118  DOPC      H15Y          -14.3672129326       -7.3184326421       -0.9316776631  MEMB      118             0.0000000000
     14536       118  DOPC      C316          -16.1131997138       -8.0716461554       -0.1350091198  MEMB      118             0.0000000000
     14537       118  DOPC      H16X          -15.7121039269       -9.0984326578       -0.2734037680  MEMB      118             0.0000000000
     14538       118  DOPC      H16Y          -15.8986014425       -7.8285086101        0.9276072319  MEMB      118             0.0000000000
     14539       118  DOPC      C317          -17.6301634218       -8.0913240613       -0.3279756937  MEMB      118             0.0000000000
     14540       118  DOPC      H17X          -17.8092756157       -8.1515782463       -1.4227855098  MEMB      118             0.0000000000
     14541       118  DOPC      H17Y          -18.0646207687       -8.9412322171        0.2405518713  MEMB      118             0.0000000000
     14542       118  DOPC      C318          -18.3307827797       -6.7702772720        0.1583082179  MEMB      118             0.0000000000
     14543       118  DOPC      H18X          -17.9501840663       -6.5195893395        1.1715313373  MEMB      118             0.0000000000
     14544       118  DOPC      H18Y          -18.1313983635       -5.9312540786       -0.5421261124  MEMB      118             0.0000000000
     14545       118  DOPC      H18Z          -19.4056568604       -7.0507980457        0.1748701194  MEMB      118             0.0000000000
     14546       119  DOPE      N              19.7867518560        5.6628853085      -17.2503936513  MEMB      119             0.0000000000
     14547       119  DOPE      HN1            20.4100473512        5.8109334246      -18.0696520715  MEMB      119             0.0000000000
     14548       119  DOPE      HN2            20.2386745488        6.1585750511      -16.4556249058  MEMB      119             0.0000000000
     14549       119  DOPE      HN3            19.6183881208        4.6704777630      -16.9888966666  MEMB      119             0.0000000000
     14550       119  DOPE      C12            18.5761426003        6.5826280052      -17.1718874825  MEMB      119             0.0000000000
     14551       119  DOPE      H12A           18.9232662662        7.6037999022      -17.4384098255  MEMB      119             0.0000000000
     14552       119  DOPE      H12B           18.1782938396        6.4711307039      -16.1405748776  MEMB      119             0.0000000000
     14553       119  DOPE      C11            17.4459211514        6.0540445890      -18.0460571385  MEMB      119             0.0000000000
     14554       119  DOPE      H11A           16.5234255464        6.4986451077      -17.6151822191  MEMB      119             0.0000000000
     14555       119  DOPE      H11B           17.3295047316        4.9495694374      -18.0761045911  MEMB      119             0.0000000000
     14556       119  DOPE      P              16.7244648148        7.5857453444      -19.9950623376  MEMB      119             0.0000000000
     14557       119  DOPE      O13            15.4321027639        6.8874680217      -20.0169151657  MEMB      119             0.0000000000
     14558       119  DOPE      O14            17.4004580748        8.0176886412      -21.2657391690  MEMB      119             0.0000000000
     14559       119  DOPE      O11            16.7317283117        8.7237970646      -18.8601601990  MEMB      119             0.0000000000
     14560       119  DOPE      O12            17.6927152244        6.4209614249      -19.3937848562  MEMB      119             0.0000000000
     14561       119  DOPE      C1             16.2338193650        9.9601038377      -19.2770274714  MEMB      119             0.0000000000
     14562       119  DOPE      HA             15.2648373756        9.8631609709      -19.8118141752  MEMB      119             0.0000000000
     14563       119  DOPE      HB             17.0616069932       10.5475943909      -19.7286287245  MEMB      119             0.0000000000
     14564       119  DOPE      C2             15.8254366864       10.8317551223      -18.0105228646  MEMB      119             0.0000000000
     14565       119  DOPE      HS             15.6327318849       11.8855473855      -18.3049853126  MEMB      119             0.0000000000
     14566       119  DOPE      O21            16.7509877448       10.8123435670      -16.9006655220  MEMB      119             0.0000000000
     14567       119  DOPE      C21            17.9360603881       11.3549601486      -16.9832897191  MEMB      119             0.0000000000
     14568       119  DOPE      O22            18.4325791994       11.9296442520      -17.9304187154  MEMB      119             0.0000000000
     14569       119  DOPE      C22            18.9090507574       11.1159287260      -15.7439642562  MEMB      119             0.0000000000
     14570       119  DOPE      H2R            18.9110678832       12.1008159623      -15.2298489807  MEMB      119             0.0000000000
     14571       119  DOPE      H2S            19.8997887538       10.8143358084      -16.1462089750  MEMB      119             0.0000000000
     14572       119  DOPE      C3             14.4789378852       10.2938030599      -17.5130434048  MEMB      119             0.0000000000
     14573       119  DOPE      HX             13.7668856508       10.4883989991      -18.3433658902  MEMB      119             0.0000000000
     14574       119  DOPE      HY             14.1833270475       10.9420579197      -16.6605757247  MEMB      119             0.0000000000
     14575       119  DOPE      O31            14.4987932640        8.9548884307      -17.0885237503  MEMB      119             0.0000000000
     14576       119  DOPE      C31            14.5266488192        8.6773352868      -15.7754929870  MEMB      119             0.0000000000
     14577       119  DOPE      O32            14.6242418655        9.5130046136      -14.8874015084  MEMB      119             0.0000000000
     14578       119  DOPE      C32            14.3550152784        7.2599124246      -15.4809005553  MEMB      119             0.0000000000
     14579       119  DOPE      H2X            13.2901676436        6.9549674377      -15.5670938434  MEMB      119             0.0000000000
     14580       119  DOPE      H2Y            14.8709391177        6.5724358277      -16.1848319560  MEMB      119             0.0000000000
     14581       119  DOPE      C23            18.4423706051       10.0198070970      -14.7063544774  MEMB      119             0.0000000000
     14582       119  DOPE      H3R            18.6354927509        8.9806983376      -15.0488128608  MEMB      119             0.0000000000
     14583       119  DOPE      H3S            17.3390743484       10.1504143969      -14.7064409557  MEMB      119             0.0000000000
     14584       119  DOPE      C24            19.0325137813       10.1931654773      -13.2688864854  MEMB      119             0.0000000000
     14585       119  DOPE      H4R            18.7815383942       11.2266534705      -12.9475841716  MEMB      119             0.0000000000
     14586       119  DOPE      H4S            20.1427337057       10.1880329156      -13.3101949460  MEMB      119             0.0000000000
     14587       119  DOPE      C25            18.5241857121        9.1182775168      -12.2384322769  MEMB      119             0.0000000000
     14588       119  DOPE      H5R            18.8441018849        8.0693038074      -12.4162775896  MEMB      119             0.0000000000
     14589       119  DOPE      H5S            17.4160059071        9.1956267558      -12.2218313325  MEMB      119             0.0000000000
     14590       119  DOPE      C26            19.0642181310        9.3596597322      -10.7644023715  MEMB      119             0.0000000000
     14591       119  DOPE      H6R            20.1044719277        8.9929066908      -10.6314166418  MEMB      119             0.0000000000
     14592       119  DOPE      H6S            18.5105217733        8.7276782200      -10.0375319806  MEMB      119             0.0000000000
     14593       119  DOPE      C27            19.0236385335       10.7453740466      -10.2106218215  MEMB      119             0.0000000000
     14594       119  DOPE      H7R            17.9787911058       11.0652545434      -10.0098945757  MEMB      119             0.0000000000
     14595       119  DOPE      H7S            19.5776494409       11.3556879388      -10.9555442118  MEMB      119             0.0000000000
     14596       119  DOPE      C28            19.8042983347       11.0831459572       -8.8738187766  MEMB      119             0.0000000000
     14597       119  DOPE      H8R            19.8332505821       12.1895817835       -8.7774731813  MEMB      119             0.0000000000
     14598       119  DOPE      H8S            20.8040897411       10.6163289843       -9.0035109695  MEMB      119             0.0000000000
     14599       119  DOPE      C29            18.9982153590       10.5863745781       -7.6361907073  MEMB      119             0.0000000000
     14600       119  DOPE      H9R            18.2650809439       11.3282436614       -7.2867000397  MEMB      119             0.0000000000
     14601       119  DOPE      C210           19.0446891220        9.4013037298       -6.9651011917  MEMB      119             0.0000000000
     14602       119  DOPE      H10R           18.4266154123        9.1795628914       -6.0825960270  MEMB      119             0.0000000000
     14603       119  DOPE      C211           19.9704299348        8.2245786392       -7.1982810710  MEMB      119             0.0000000000
     14604       119  DOPE      H11R           20.3397441640        8.3179447973       -8.2419331885  MEMB      119             0.0000000000
     14605       119  DOPE      H11S           19.6420106552        7.1720106884       -7.0620365718  MEMB      119             0.0000000000
     14606       119  DOPE      C212           21.2318237125        8.2488433425       -6.3601365411  MEMB      119             0.0000000000
     14607       119  DOPE      H12R           21.5295192664        9.3103132498       -6.2223699438  MEMB      119             0.0000000000
     14608       119  DOPE      H12S           22.0903346602        7.6830271190       -6.7810074492  MEMB      119             0.0000000000
     14609       119  DOPE      C213           20.8844141399        7.6504165506       -5.0272184686  MEMB      119             0.0000000000
     14610       119  DOPE      H13R           20.4162998720        6.6506212236       -5.1521154165  MEMB      119             0.0000000000
     14611       119  DOPE      H13S           20.2354076518        8.3874249228       -4.5076706281  MEMB      119             0.0000000000
     14612       119  DOPE      C214           22.2706290931        7.5498131304       -4.2362919104  MEMB      119             0.0000000000
     14613       119  DOPE      H14R           22.8011146120        8.5240255573       -4.1745143977  MEMB      119             0.0000000000
     14614       119  DOPE      H14S           22.8633090887        6.8108667203       -4.8168173523  MEMB      119             0.0000000000
     14615       119  DOPE      C215           22.1289750637        6.8654193050       -2.8784857571  MEMB      119             0.0000000000
     14616       119  DOPE      H15R           23.0863432612        6.9006130283       -2.3158757566  MEMB      119             0.0000000000
     14617       119  DOPE      H15S           21.8780432520        5.8036886589       -3.0884436162  MEMB      119             0.0000000000
     14618       119  DOPE      C216           20.9832109307        7.3857095309       -2.0247336572  MEMB      119             0.0000000000
     14619       119  DOPE      H16R           19.9709720234        7.1516643140       -2.4183276355  MEMB      119             0.0000000000
     14620       119  DOPE      H16S           21.0703680954        8.4776497573       -2.2101818099  MEMB      119             0.0000000000
     14621       119  DOPE      C217           21.1098293364        7.1773310354       -0.4937191804  MEMB      119             0.0000000000
     14622       119  DOPE      H17R           20.3210737181        7.7777220661        0.0079942540  MEMB      119             0.0000000000
     14623       119  DOPE      H17S           22.1040741694        7.6325285058       -0.2972646598  MEMB      119             0.0000000000
     14624       119  DOPE      C218           21.0494743919        5.7617965438       -0.0342262882  MEMB      119             0.0000000000
     14625       119  DOPE      H18R           20.1314000031        5.2648437354       -0.4143555489  MEMB      119             0.0000000000
     14626       119  DOPE      H18S           21.0646603261        5.7433929930        1.0765168072  MEMB      119             0.0000000000
     14627       119  DOPE      H18T           21.8948818968        5.1689560494       -0.4442839526  MEMB      119             0.0000000000
     14628       119  DOPE      C33            14.9462109031        6.7843110466      -14.0904965228  MEMB      119             0.0000000000
     14629       119  DOPE      H3X            15.9480927772        7.2641813527      -14.0738220460  MEMB      119             0.0000000000
     14630       119  DOPE      H3Y            15.1040597473        5.6939933338      -13.9469265007  MEMB      119             0.0000000000
     14631       119  DOPE      C34            14.1615760766        7.1220988640      -12.8154426619  MEMB      119             0.0000000000
     14632       119  DOPE      H4X            13.9905196564        8.2167227808      -12.7326218773  MEMB      119             0.0000000000
     14633       119  DOPE      H4Y            13.1999478005        6.5661539080      -12.8381713528  MEMB      119             0.0000000000
     14634       119  DOPE      C35            14.8479518744        6.5055105970      -11.5369136576  MEMB      119             0.0000000000
     14635       119  DOPE      H5X            15.8906629076        6.8890104475      -11.5353554016  MEMB      119             0.0000000000
     14636       119  DOPE      H5Y            15.0423472480        5.4264619658      -11.7163169911  MEMB      119             0.0000000000
     14637       119  DOPE      C36            14.2434756452        6.9217191501      -10.1488424592  MEMB      119             0.0000000000
     14638       119  DOPE      H6X            14.8450390928        6.4554459099       -9.3395019400  MEMB      119             0.0000000000
     14639       119  DOPE      H6Y            13.2861555313        6.3773696200      -10.0020684841  MEMB      119             0.0000000000
     14640       119  DOPE      C37            14.1731703571        8.4403759503       -9.8210274473  MEMB      119             0.0000000000
     14641       119  DOPE      H7X            13.9645426638        8.9492781240      -10.7863324741  MEMB      119             0.0000000000
     14642       119  DOPE      H7Y            13.2969827111        8.5489432598       -9.1466173448  MEMB      119             0.0000000000
     14643       119  DOPE      C38            15.5635009225        9.0158419033       -9.3019799142  MEMB      119             0.0000000000
     14644       119  DOPE      H8X            16.2867731545        9.0722400800      -10.1434177513  MEMB      119             0.0000000000
     14645       119  DOPE      H8Y            15.9146004948        8.2637268344       -8.5634867191  MEMB      119             0.0000000000
     14646       119  DOPE      C39            15.3810140288       10.3588107062       -8.6745148813  MEMB      119             0.0000000000
     14647       119  DOPE      H9X            15.6149360485       11.1768774907       -9.3716858680  MEMB      119             0.0000000000
     14648       119  DOPE      C310           14.9682538655       10.5001877535       -7.3782223534  MEMB      119             0.0000000000
     14649       119  DOPE      H10X           15.0029711984       11.4885264466       -6.8965781710  MEMB      119             0.0000000000
     14650       119  DOPE      C311           14.5866026453        9.3836091873       -6.4018248582  MEMB      119             0.0000000000
     14651       119  DOPE      H11X           13.4869715001        9.3415786061       -6.2489650348  MEMB      119             0.0000000000
     14652       119  DOPE      H11Y           14.8299975781        8.3863918942       -6.8268397782  MEMB      119             0.0000000000
     14653       119  DOPE      C312           15.1482327653        9.4727702705       -4.9651643207  MEMB      119             0.0000000000
     14654       119  DOPE      H12X           14.6102100451       10.3025585770       -4.4588994240  MEMB      119             0.0000000000
     14655       119  DOPE      H12Y           16.2240143791        9.7491765130       -4.9899467000  MEMB      119             0.0000000000
     14656       119  DOPE      C313           14.8102377398        8.1487604685       -4.2615000000  MEMB      119             0.0000000000
     14657       119  DOPE      H13X           15.0263766901        8.2759133191       -3.1791705913  MEMB      119             0.0000000000
     14658       119  DOPE      H13Y           13.7095479456        8.1160209009       -4.4089145319  MEMB      119             0.0000000000
     14659       119  DOPE      C314           15.4035409598        6.8146443222       -4.7542288170  MEMB      119             0.0000000000
     14660       119  DOPE      H14X           15.2517436725        6.7182906517       -5.8505839007  MEMB      119             0.0000000000
     14661       119  DOPE      H14Y           14.7366496307        6.0507897658       -4.3002429797  MEMB      119             0.0000000000
     14662       119  DOPE      C315           16.8743455089        6.6154021611       -4.3624928933  MEMB      119             0.0000000000
     14663       119  DOPE      H15X           17.5330522773        7.3173446476       -4.9172029394  MEMB      119             0.0000000000
     14664       119  DOPE      H15Y           17.0846396827        5.6330965258       -4.8370172582  MEMB      119             0.0000000000
     14665       119  DOPE      C316           17.2033936980        6.5205198607       -2.8366170850  MEMB      119             0.0000000000
     14666       119  DOPE      H16X           17.0826871234        7.5280249534       -2.3841952695  MEMB      119             0.0000000000
     14667       119  DOPE      H16Y           18.2890515734        6.3339109205       -2.9809949815  MEMB      119             0.0000000000
     14668       119  DOPE      C317           16.3691463486        5.5145060622       -2.0305378219  MEMB      119             0.0000000000
     14669       119  DOPE      H17X           15.3308002810        5.9096164369       -2.0373460714  MEMB      119             0.0000000000
     14670       119  DOPE      H17Y           16.4527268274        4.4352465413       -2.2806056780  MEMB      119             0.0000000000
     14671       119  DOPE      C318           16.7754726526        5.6052126038       -0.4929026012  MEMB      119             0.0000000000
     14672       119  DOPE      H18X           16.6304524520        6.6082130013       -0.0376222622  MEMB      119             0.0000000000
     14673       119  DOPE      H18Y           16.2716557375        4.7984239756        0.0811901635  MEMB      119             0.0000000000
     14674       119  DOPE      H18Z           17.8563358505        5.3530779268       -0.4430621317  MEMB      119             0.0000000000
     14675       120  DOPC      N              10.5102499587      -13.5966907398      -19.5851561635  MEMB      120             0.0000000000
     14676       120  DOPC      C12            11.1279694132      -14.6801576731      -20.4123389644  MEMB      120             0.0000000000
     14677       120  DOPC      H12A           12.1340015168      -14.4932400368      -20.7578258303  MEMB      120             0.0000000000
     14678       120  DOPC      H12B           10.4767294371      -14.8603629487      -21.2548427481  MEMB      120             0.0000000000
     14679       120  DOPC      C13            10.0803178845      -12.4247628455      -20.4080655900  MEMB      120             0.0000000000
     14680       120  DOPC      H13A           10.1723391446      -11.5460530191      -19.7869364843  MEMB      120             0.0000000000
     14681       120  DOPC      H13B           10.7587122798      -12.3462865788      -21.2447390016  MEMB      120             0.0000000000
     14682       120  DOPC      H13C            9.0917346243      -12.5668251214      -20.8190661074  MEMB      120             0.0000000000
     14683       120  DOPC      C14            11.4271809979      -13.1083409034      -18.4580661056  MEMB      120             0.0000000000
     14684       120  DOPC      H14A           11.7766428101      -13.9175891489      -17.8340519395  MEMB      120             0.0000000000
     14685       120  DOPC      H14B           12.2728923247      -12.6172767560      -18.9163543139  MEMB      120             0.0000000000
     14686       120  DOPC      H14C           10.9021957636      -12.4078274920      -17.8255538625  MEMB      120             0.0000000000
     14687       120  DOPC      C15             9.2254141666      -14.1551887145      -18.9810303972  MEMB      120             0.0000000000
     14688       120  DOPC      H15A            9.4903515528      -14.7856441919      -18.1451272737  MEMB      120             0.0000000000
     14689       120  DOPC      H15B            8.6251550515      -14.7772870664      -19.6283963009  MEMB      120             0.0000000000
     14690       120  DOPC      H15C            8.6712340228      -13.3479464275      -18.5253501677  MEMB      120             0.0000000000
     14691       120  DOPC      C11            11.2167774962      -16.1728302870      -19.8125360337  MEMB      120             0.0000000000
     14692       120  DOPC      H11A           10.1786708098      -16.5546468884      -19.7082695239  MEMB      120             0.0000000000
     14693       120  DOPC      H11B           11.7503556329      -16.9222516654      -20.4354188098  MEMB      120             0.0000000000
     14694       120  DOPC      P              13.3587128970      -16.4626070211      -18.3274370414  MEMB      120             0.0000000000
     14695       120  DOPC      O13            14.0883400283      -15.2489748057      -18.7872647933  MEMB      120             0.0000000000
     14696       120  DOPC      O14            13.5966078225      -17.7945587980      -18.9734868766  MEMB      120             0.0000000000
     14697       120  DOPC      O12            11.8270257171      -16.1557975669      -18.5306614023  MEMB      120             0.0000000000
     14698       120  DOPC      O11            13.5591013217      -16.6203468476      -16.7239566269  MEMB      120             0.0000000000
     14699       120  DOPC      C1             12.4862811234      -16.7142116962      -15.8397753334  MEMB      120             0.0000000000
     14700       120  DOPC      HA             12.8960373001      -17.0153051695      -14.8519676421  MEMB      120             0.0000000000
     14701       120  DOPC      HB             11.7241407195      -17.4427055221      -16.1901463852  MEMB      120             0.0000000000
     14702       120  DOPC      C2             11.7957551286      -15.3580443888      -15.5853985648  MEMB      120             0.0000000000
     14703       120  DOPC      HS             11.5291326803      -14.7766908741      -16.4938375374  MEMB      120             0.0000000000
     14704       120  DOPC      O21            12.7051139004      -14.5013616299      -14.7129507115  MEMB      120             0.0000000000
     14705       120  DOPC      C21            12.3987074415      -13.2324571529      -14.6986185248  MEMB      120             0.0000000000
     14706       120  DOPC      O22            11.5568464757      -12.6181375314      -15.3043874423  MEMB      120             0.0000000000
     14707       120  DOPC      C22            13.2026594104      -12.6833652957      -13.4836353867  MEMB      120             0.0000000000
     14708       120  DOPC      H2R            14.0000226349      -12.0000203868      -13.8463651291  MEMB      120             0.0000000000
     14709       120  DOPC      H2S            13.7768536377      -13.4265529332      -12.8900919644  MEMB      120             0.0000000000
     14710       120  DOPC      C3             10.4811180309      -15.5861317951      -14.7831039021  MEMB      120             0.0000000000
     14711       120  DOPC      HX              9.6793815489      -15.7571242892      -15.5329711191  MEMB      120             0.0000000000
     14712       120  DOPC      HY             10.3275475389      -14.6872554124      -14.1484713610  MEMB      120             0.0000000000
     14713       120  DOPC      O31            10.6682998273      -16.7990963166      -14.0262160445  MEMB      120             0.0000000000
     14714       120  DOPC      C31             9.6066756209      -17.2032121799      -13.3341086031  MEMB      120             0.0000000000
     14715       120  DOPC      O32             8.5014924624      -16.6512938050      -13.3710956585  MEMB      120             0.0000000000
     14716       120  DOPC      C32             9.8014738618      -18.4143190039      -12.4624392358  MEMB      120             0.0000000000
     14717       120  DOPC      H2X             9.1273979622      -18.2893618909      -11.5881804074  MEMB      120             0.0000000000
     14718       120  DOPC      H2Y             9.3889533065      -19.2796769096      -13.0239578407  MEMB      120             0.0000000000
     14719       120  DOPC      C23            12.3736169510      -11.7916705012      -12.5660324558  MEMB      120             0.0000000000
     14720       120  DOPC      H3R            12.0999003592      -10.8189397203      -13.0277632107  MEMB      120             0.0000000000
     14721       120  DOPC      H3S            13.0546219164      -11.5280968898      -11.7287258173  MEMB      120             0.0000000000
     14722       120  DOPC      C24            11.1559651085      -12.4270519592      -11.9400764009  MEMB      120             0.0000000000
     14723       120  DOPC      H4R            11.3726562949      -13.5159502955      -11.8992565023  MEMB      120             0.0000000000
     14724       120  DOPC      H4S            10.2803732063      -12.2827783863      -12.6085409813  MEMB      120             0.0000000000
     14725       120  DOPC      C25            10.8203037066      -11.9945952322      -10.5056353854  MEMB      120             0.0000000000
     14726       120  DOPC      H5R             9.7143960929      -12.0883954834      -10.4557273917  MEMB      120             0.0000000000
     14727       120  DOPC      H5S            11.0819677667      -10.9180916420      -10.4220132905  MEMB      120             0.0000000000
     14728       120  DOPC      C26            11.4609497079      -12.7113645103       -9.3247392347  MEMB      120             0.0000000000
     14729       120  DOPC      H6R            12.5594745336      -12.5486297958       -9.3576275466  MEMB      120             0.0000000000
     14730       120  DOPC      H6S            11.2322565790      -13.7785685398       -9.5323339775  MEMB      120             0.0000000000
     14731       120  DOPC      C27            10.8906635697      -12.3116282636       -7.9402435620  MEMB      120             0.0000000000
     14732       120  DOPC      H7R             9.8135428232      -12.4493797509       -7.7053895198  MEMB      120             0.0000000000
     14733       120  DOPC      H7S            11.1174787648      -11.2325409805       -7.8044260239  MEMB      120             0.0000000000
     14734       120  DOPC      C28            11.6671188380      -13.0690897540       -6.8884017956  MEMB      120             0.0000000000
     14735       120  DOPC      H8R            11.7103581603      -12.4695977672       -5.9540240690  MEMB      120             0.0000000000
     14736       120  DOPC      H8S            12.7295002251      -13.1702448779       -7.1973260507  MEMB      120             0.0000000000
     14737       120  DOPC      C29            11.2206846731      -14.4418501114       -6.5294919921  MEMB      120             0.0000000000
     14738       120  DOPC      H9R            11.5562363764      -15.2300876219       -7.2194823806  MEMB      120             0.0000000000
     14739       120  DOPC      C210           10.3834984827      -14.8890484159       -5.5530203895  MEMB      120             0.0000000000
     14740       120  DOPC      H10R           10.0610963304      -15.9394740401       -5.5014186893  MEMB      120             0.0000000000
     14741       120  DOPC      C211            9.6788904920      -13.9781017252       -4.5503606742  MEMB      120             0.0000000000
     14742       120  DOPC      H11R            8.6247647465      -14.3273363950       -4.5846405572  MEMB      120             0.0000000000
     14743       120  DOPC      H11S            9.6397039992      -12.9164823109       -4.8755522918  MEMB      120             0.0000000000
     14744       120  DOPC      C212           10.2684898904      -14.0334246852       -3.1552982894  MEMB      120             0.0000000000
     14745       120  DOPC      H12R            9.6866125041      -13.3893868631       -2.4617885333  MEMB      120             0.0000000000
     14746       120  DOPC      H12S           11.3185617090      -13.6754133796       -3.0961556641  MEMB      120             0.0000000000
     14747       120  DOPC      C213           10.2243878038      -15.4599569811       -2.6130632527  MEMB      120             0.0000000000
     14748       120  DOPC      H13R           10.7791901988      -15.4501876152       -1.6505564489  MEMB      120             0.0000000000
     14749       120  DOPC      H13S           10.7952806086      -16.0656445056       -3.3489602564  MEMB      120             0.0000000000
     14750       120  DOPC      C214            8.8436898149      -15.9823700572       -2.2736929958  MEMB      120             0.0000000000
     14751       120  DOPC      H14R            8.0675542342      -15.9130445335       -3.0656068280  MEMB      120             0.0000000000
     14752       120  DOPC      H14S            8.5353387126      -15.4611101842       -1.3422801902  MEMB      120             0.0000000000
     14753       120  DOPC      C215            8.9502845319      -17.5057981775       -1.8959723217  MEMB      120             0.0000000000
     14754       120  DOPC      H15R            8.3618360902      -17.6150510210       -0.9599632902  MEMB      120             0.0000000000
     14755       120  DOPC      H15S           10.0029371351      -17.7056495934       -1.6022000513  MEMB      120             0.0000000000
     14756       120  DOPC      C216            8.5046409247      -18.4898463180       -2.8787330313  MEMB      120             0.0000000000
     14757       120  DOPC      H16R            8.9796640892      -18.2444891279       -3.8526294564  MEMB      120             0.0000000000
     14758       120  DOPC      H16S            7.4030906024      -18.4159011233       -3.0029886747  MEMB      120             0.0000000000
     14759       120  DOPC      C217            8.8926963347      -19.9027741404       -2.5821639294  MEMB      120             0.0000000000
     14760       120  DOPC      H17R            8.3869908148      -20.5830574848       -3.3003539020  MEMB      120             0.0000000000
     14761       120  DOPC      H17S            8.4515580471      -20.1850857010       -1.6023582764  MEMB      120             0.0000000000
     14762       120  DOPC      C218           10.3770460844      -20.2380085527       -2.7047395174  MEMB      120             0.0000000000
     14763       120  DOPC      H18R           10.4979925642      -21.3378851547       -2.8045649780  MEMB      120             0.0000000000
     14764       120  DOPC      H18S           11.0207297351      -19.7438035623       -1.9459549613  MEMB      120             0.0000000000
     14765       120  DOPC      H18T           10.6346859516      -19.7475957300       -3.6677751850  MEMB      120             0.0000000000
     14766       120  DOPC      C33            11.2662269508      -18.5080963505      -11.9545687750  MEMB      120             0.0000000000
     14767       120  DOPC      H3X            11.3993514709      -17.5484973896      -11.4107222103  MEMB      120             0.0000000000
     14768       120  DOPC      H3Y            12.0379154099      -18.5263161402      -12.7536215637  MEMB      120             0.0000000000
     14769       120  DOPC      C34            11.5261414791      -19.6688809530      -10.9238312652  MEMB      120             0.0000000000
     14770       120  DOPC      H4X            11.6041640367      -20.7027327098      -11.3230607092  MEMB      120             0.0000000000
     14771       120  DOPC      H4Y            10.6901694441      -19.7403141181      -10.1955664783  MEMB      120             0.0000000000
     14772       120  DOPC      C35            12.8513620704      -19.3259478528      -10.1462970370  MEMB      120             0.0000000000
     14773       120  DOPC      H5X            13.6843845089      -19.1358740851      -10.8564142354  MEMB      120             0.0000000000
     14774       120  DOPC      H5Y            13.1895314606      -20.2486152311       -9.6279852205  MEMB      120             0.0000000000
     14775       120  DOPC      C36            12.7639900214      -18.1062037541       -9.2185405645  MEMB      120             0.0000000000
     14776       120  DOPC      H6X            12.4578356442      -17.1880461715       -9.7640462664  MEMB      120             0.0000000000
     14777       120  DOPC      H6Y            12.0100921621      -18.3461707665       -8.4385562388  MEMB      120             0.0000000000
     14778       120  DOPC      C37            14.1418993556      -17.7864125359       -8.6188489214  MEMB      120             0.0000000000
     14779       120  DOPC      H7X            14.6681044466      -18.7559385541       -8.4867555302  MEMB      120             0.0000000000
     14780       120  DOPC      H7Y            14.7912980659      -17.2691142138       -9.3570932244  MEMB      120             0.0000000000
     14781       120  DOPC      C38            14.1602050143      -16.8547993519       -7.3813134189  MEMB      120             0.0000000000
     14782       120  DOPC      H8X            13.6148878789      -17.3420963936       -6.5449576205  MEMB      120             0.0000000000
     14783       120  DOPC      H8Y            13.5622561308      -15.9220925530       -7.4639959379  MEMB      120             0.0000000000
     14784       120  DOPC      C39            15.5139759487      -16.4056471035       -6.9599964636  MEMB      120             0.0000000000
     14785       120  DOPC      H9X            15.9582733117      -15.7496951217       -7.7231004823  MEMB      120             0.0000000000
     14786       120  DOPC      C310           16.2178300681      -16.8258175270       -5.8661454195  MEMB      120             0.0000000000
     14787       120  DOPC      H10X           17.1701546237      -16.2884493613       -5.7465068026  MEMB      120             0.0000000000
     14788       120  DOPC      C311           15.7468283572      -17.8483097272       -4.8599191423  MEMB      120             0.0000000000
     14789       120  DOPC      H11X           16.5399211833      -18.3501384065       -4.2653676973  MEMB      120             0.0000000000
     14790       120  DOPC      H11Y           15.3292684766      -18.7157094603       -5.4145210567  MEMB      120             0.0000000000
     14791       120  DOPC      C312           14.8419275565      -17.3182766031       -3.7413012634  MEMB      120             0.0000000000
     14792       120  DOPC      H12X           13.9163234887      -16.8963093934       -4.1879794928  MEMB      120             0.0000000000
     14793       120  DOPC      H12Y           15.3598438923      -16.5041532395       -3.1905859446  MEMB      120             0.0000000000
     14794       120  DOPC      C313           14.3364873218      -18.3028865824       -2.7282727278  MEMB      120             0.0000000000
     14795       120  DOPC      H13X           14.0600874233      -19.2215119020       -3.2886760941  MEMB      120             0.0000000000
     14796       120  DOPC      H13Y           15.2339800764      -18.6103841607       -2.1501083856  MEMB      120             0.0000000000
     14797       120  DOPC      C314           13.1899154134      -17.8117896792       -1.8555635216  MEMB      120             0.0000000000
     14798       120  DOPC      H14X           12.2613775446      -17.6741100448       -2.4498567145  MEMB      120             0.0000000000
     14799       120  DOPC      H14Y           12.8958269894      -18.5842914057       -1.1132204543  MEMB      120             0.0000000000
     14800       120  DOPC      C315           13.4091082139      -16.5394085428       -1.0259904233  MEMB      120             0.0000000000
     14801       120  DOPC      H15X           12.4618631751      -16.3833418051       -0.4668024708  MEMB      120             0.0000000000
     14802       120  DOPC      H15Y           13.6318115643      -15.6423774345       -1.6424800724  MEMB      120             0.0000000000
     14803       120  DOPC      C316           14.4750080856      -16.8056983590        0.1318258595  MEMB      120             0.0000000000
     14804       120  DOPC      H16X           14.2876762583      -17.8513867111        0.4570380769  MEMB      120             0.0000000000
     14805       120  DOPC      H16Y           15.5361809253      -16.7834931163       -0.1964115910  MEMB      120             0.0000000000
     14806       120  DOPC      C317           14.2704334167      -16.0199090886        1.4554586259  MEMB      120             0.0000000000
     14807       120  DOPC      H17X           14.3674786813      -14.9618784794        1.1306890196  MEMB      120             0.0000000000
     14808       120  DOPC      H17Y           13.2411115249      -16.2551289390        1.8011305599  MEMB      120             0.0000000000
     14809       120  DOPC      C318           15.3256499303      -16.2674062015        2.5750615017  MEMB      120             0.0000000000
     14810       120  DOPC      H18X           16.3481877723      -16.1921447239        2.1471911843  MEMB      120             0.0000000000
     14811       120  DOPC      H18Y           15.1195476622      -15.6229971162        3.4563007242  MEMB      120             0.0000000000
     14812       120  DOPC      H18Z           15.1997867780      -17.3080113676        2.9433291475  MEMB      120             0.0000000000
     14813       121  DOPE      N             -10.6302904560      -15.1796293301      -20.5345815620  MEMB      121             0.0000000000
     14814       121  DOPE      HN1           -10.6514832789      -15.0557670333      -21.5669618125  MEMB      121             0.0000000000
     14815       121  DOPE      HN2           -10.4697638862      -14.2597673202      -20.0766677528  MEMB      121             0.0000000000
     14816       121  DOPE      HN3            -9.8785433945      -15.8569938737      -20.2944706288  MEMB      121             0.0000000000
     14817       121  DOPE      C12           -12.0196170626      -15.7083618680      -20.3035340528  MEMB      121             0.0000000000
     14818       121  DOPE      H12A          -11.9526193110      -16.0342015274      -19.2435053501  MEMB      121             0.0000000000
     14819       121  DOPE      H12B          -12.0540746436      -16.5259561966      -21.0549815534  MEMB      121             0.0000000000
     14820       121  DOPE      C11           -13.1267213435      -14.6881664166      -20.4670618130  MEMB      121             0.0000000000
     14821       121  DOPE      H11A          -14.1469002471      -15.1245316699      -20.4110137465  MEMB      121             0.0000000000
     14822       121  DOPE      H11B          -13.0019788832      -14.3151516229      -21.5061093696  MEMB      121             0.0000000000
     14823       121  DOPE      P             -13.5886790163      -13.7669367752      -18.0771797954  MEMB      121             0.0000000000
     14824       121  DOPE      O13           -12.4136958644      -13.6691563595      -17.1687485728  MEMB      121             0.0000000000
     14825       121  DOPE      O14           -14.3577033759      -15.0255694290      -18.0008904240  MEMB      121             0.0000000000
     14826       121  DOPE      O11           -14.6379323016      -12.5414137090      -17.9474665443  MEMB      121             0.0000000000
     14827       121  DOPE      O12           -13.0345429776      -13.6169493107      -19.5005372247  MEMB      121             0.0000000000
     14828       121  DOPE      C1            -14.3401171587      -11.2259872609      -17.6034534147  MEMB      121             0.0000000000
     14829       121  DOPE      HA            -14.6392499515      -10.4009449263      -18.2847359325  MEMB      121             0.0000000000
     14830       121  DOPE      HB            -13.2505167483      -11.0478161018      -17.4795704865  MEMB      121             0.0000000000
     14831       121  DOPE      C2            -15.0231313529      -11.1147320700      -16.2586321386  MEMB      121             0.0000000000
     14832       121  DOPE      HS            -14.8566570337      -10.1175016533      -15.7980465020  MEMB      121             0.0000000000
     14833       121  DOPE      O21           -14.6839595648      -12.1197373628      -15.3723798659  MEMB      121             0.0000000000
     14834       121  DOPE      C21           -13.4930245429      -12.0937140526      -14.7552002323  MEMB      121             0.0000000000
     14835       121  DOPE      O22           -12.5162678271      -11.4947715317      -15.0600510817  MEMB      121             0.0000000000
     14836       121  DOPE      C22           -13.4466119965      -13.3890767264      -13.8712309158  MEMB      121             0.0000000000
     14837       121  DOPE      H2R           -12.6786850440      -14.0555565835      -14.3189069773  MEMB      121             0.0000000000
     14838       121  DOPE      H2S           -14.4690498177      -13.8197722543      -13.8125510329  MEMB      121             0.0000000000
     14839       121  DOPE      C3            -16.6024399990      -11.3249108392      -16.3351565940  MEMB      121             0.0000000000
     14840       121  DOPE      HX            -16.8780403360      -12.3147470509      -16.7577553541  MEMB      121             0.0000000000
     14841       121  DOPE      HY            -17.1247712646      -10.5733595859      -16.9649678145  MEMB      121             0.0000000000
     14842       121  DOPE      O31           -17.0058177209      -11.0307337100      -14.9817211523  MEMB      121             0.0000000000
     14843       121  DOPE      C31           -17.6911038721      -12.0067204485      -14.3298081387  MEMB      121             0.0000000000
     14844       121  DOPE      O32           -18.1483255988      -12.9309388362      -14.9366495596  MEMB      121             0.0000000000
     14845       121  DOPE      C32           -18.0824139082      -11.6446948423      -12.8725094028  MEMB      121             0.0000000000
     14846       121  DOPE      H2X           -18.3125014798      -10.5614346930      -12.7834682200  MEMB      121             0.0000000000
     14847       121  DOPE      H2Y           -18.8525146803      -12.3743088353      -12.5424653075  MEMB      121             0.0000000000
     14848       121  DOPE      C23           -12.9171060073      -13.0117138571      -12.5085551894  MEMB      121             0.0000000000
     14849       121  DOPE      H3R           -13.3820838270      -13.6620459186      -11.7370731439  MEMB      121             0.0000000000
     14850       121  DOPE      H3S           -13.2406699480      -12.0055513722      -12.1661164925  MEMB      121             0.0000000000
     14851       121  DOPE      C24           -11.4168169488      -13.0829354361      -12.4797450118  MEMB      121             0.0000000000
     14852       121  DOPE      H4R           -10.8614810972      -12.4302362969      -13.1867860016  MEMB      121             0.0000000000
     14853       121  DOPE      H4S           -11.2711189735      -14.1408183498      -12.7863014269  MEMB      121             0.0000000000
     14854       121  DOPE      C25           -10.8172608035      -12.9824739132      -11.1231731574  MEMB      121             0.0000000000
     14855       121  DOPE      H5R           -11.2092064800      -13.9170032698      -10.6678112022  MEMB      121             0.0000000000
     14856       121  DOPE      H5S           -11.2276168893      -12.1267993103      -10.5454624084  MEMB      121             0.0000000000
     14857       121  DOPE      C26            -9.2803663568      -13.0036891688      -11.1117823381  MEMB      121             0.0000000000
     14858       121  DOPE      H6R            -8.8914480467      -12.0259281813      -11.4682194938  MEMB      121             0.0000000000
     14859       121  DOPE      H6S            -8.9041153314      -13.8541488350      -11.7196263829  MEMB      121             0.0000000000
     14860       121  DOPE      C27            -8.7153667958      -13.1889597494       -9.6963613639  MEMB      121             0.0000000000
     14861       121  DOPE      H7R            -7.8900523845      -13.9206907413       -9.8295809598  MEMB      121             0.0000000000
     14862       121  DOPE      H7S            -9.5259757682      -13.7084811683       -9.1419869353  MEMB      121             0.0000000000
     14863       121  DOPE      C28            -8.0256511655      -11.9874137007       -9.0064438218  MEMB      121             0.0000000000
     14864       121  DOPE      H8R            -7.1069682151      -11.8047321917       -9.6039138778  MEMB      121             0.0000000000
     14865       121  DOPE      H8S            -7.6832382425      -12.2856972409       -7.9924910999  MEMB      121             0.0000000000
     14866       121  DOPE      C29            -8.9314839889      -10.7318485079       -8.8395713362  MEMB      121             0.0000000000
     14867       121  DOPE      H9R            -8.9033223526       -9.9181113494       -9.5791921875  MEMB      121             0.0000000000
     14868       121  DOPE      C210           -9.8369144120      -10.5989879336       -7.9040759035  MEMB      121             0.0000000000
     14869       121  DOPE      H10R          -10.3989269353       -9.6543519571       -7.9465564375  MEMB      121             0.0000000000
     14870       121  DOPE      C211          -10.0460610646      -11.6056831994       -6.7654261764  MEMB      121             0.0000000000
     14871       121  DOPE      H11R           -9.2844135511      -11.5806717614       -5.9569775733  MEMB      121             0.0000000000
     14872       121  DOPE      H11S          -10.1157810129      -12.6383546263       -7.1692200423  MEMB      121             0.0000000000
     14873       121  DOPE      C212          -11.3658771815      -11.5573468437       -6.0239807645  MEMB      121             0.0000000000
     14874       121  DOPE      H12R          -11.5845945067      -12.4493366814       -5.3988102788  MEMB      121             0.0000000000
     14875       121  DOPE      H12S          -12.1211440226      -11.6567510651       -6.8326904585  MEMB      121             0.0000000000
     14876       121  DOPE      C213          -11.7426096580      -10.3692887985       -5.2162117546  MEMB      121             0.0000000000
     14877       121  DOPE      H13R          -12.6461556699      -10.6150304365       -4.6182673923  MEMB      121             0.0000000000
     14878       121  DOPE      H13S          -12.0790949028       -9.5718791048       -5.9128007885  MEMB      121             0.0000000000
     14879       121  DOPE      C214          -10.7197536262       -9.9038288874       -4.1768188079  MEMB      121             0.0000000000
     14880       121  DOPE      H14R          -11.2405005763       -9.0721327397       -3.6558344376  MEMB      121             0.0000000000
     14881       121  DOPE      H14S           -9.7889683201       -9.4563814150       -4.5863927498  MEMB      121             0.0000000000
     14882       121  DOPE      C215          -10.2183590348      -10.8866785026       -3.1735828444  MEMB      121             0.0000000000
     14883       121  DOPE      H15R           -9.3805000133      -10.4595060175       -2.5821133164  MEMB      121             0.0000000000
     14884       121  DOPE      H15S           -9.8765243815      -11.7357237580       -3.8033382090  MEMB      121             0.0000000000
     14885       121  DOPE      C216          -11.3604279689      -11.3159449224       -2.2444779975  MEMB      121             0.0000000000
     14886       121  DOPE      H16R          -12.1891177329      -11.6787970118       -2.8894069421  MEMB      121             0.0000000000
     14887       121  DOPE      H16S          -11.8101886551      -10.4514619872       -1.7109007046  MEMB      121             0.0000000000
     14888       121  DOPE      C217          -10.9187186414      -12.3399461812       -1.1545613907  MEMB      121             0.0000000000
     14889       121  DOPE      H17R          -10.2400127757      -11.7405444418       -0.5108240633  MEMB      121             0.0000000000
     14890       121  DOPE      H17S          -10.4105596626      -13.2670905254       -1.4958815961  MEMB      121             0.0000000000
     14891       121  DOPE      C218          -12.0771005899      -12.6924167606       -0.3155578154  MEMB      121             0.0000000000
     14892       121  DOPE      H18R          -12.8843816089      -13.0689211681       -0.9795323326  MEMB      121             0.0000000000
     14893       121  DOPE      H18S          -12.4372434107      -11.7454134903        0.1402973681  MEMB      121             0.0000000000
     14894       121  DOPE      H18T          -11.7771612362      -13.4016498719        0.4852830220  MEMB      121             0.0000000000
     14895       121  DOPE      C33           -16.9525729650      -11.8120552835      -11.8607224562  MEMB      121             0.0000000000
     14896       121  DOPE      H3X           -17.0212146030      -11.2494474735      -10.9051689311  MEMB      121             0.0000000000
     14897       121  DOPE      H3Y           -16.0321554659      -11.3765042401      -12.3050730309  MEMB      121             0.0000000000
     14898       121  DOPE      C34           -16.7273145057      -13.3065273937      -11.4200645249  MEMB      121             0.0000000000
     14899       121  DOPE      H4X           -17.1098671747      -13.9782554201      -12.2180345289  MEMB      121             0.0000000000
     14900       121  DOPE      H4Y           -15.6690350411      -13.6413914617      -11.4673044486  MEMB      121             0.0000000000
     14901       121  DOPE      C35           -17.2649611101      -13.9010106575      -10.0967771879  MEMB      121             0.0000000000
     14902       121  DOPE      H5X           -17.1759200808      -14.9949524925      -10.2690672025  MEMB      121             0.0000000000
     14903       121  DOPE      H5Y           -18.3577644822      -13.7228777524      -10.0052896532  MEMB      121             0.0000000000
     14904       121  DOPE      C36           -16.6365454478      -13.3655936869       -8.8251951776  MEMB      121             0.0000000000
     14905       121  DOPE      H6X           -17.0790973821      -13.8869194736       -7.9495884155  MEMB      121             0.0000000000
     14906       121  DOPE      H6Y           -17.0373084050      -12.3332015887       -8.7364464128  MEMB      121             0.0000000000
     14907       121  DOPE      C37           -15.1171174261      -13.3429507376       -8.7934456417  MEMB      121             0.0000000000
     14908       121  DOPE      H7X           -14.6929560134      -12.9209736903       -9.7295771747  MEMB      121             0.0000000000
     14909       121  DOPE      H7Y           -14.8203769932      -12.6882126276       -7.9463420667  MEMB      121             0.0000000000
     14910       121  DOPE      C38           -14.5325320584      -14.8159728201       -8.7071264108  MEMB      121             0.0000000000
     14911       121  DOPE      H8X           -14.6572727539      -15.2527193763       -9.7210363304  MEMB      121             0.0000000000
     14912       121  DOPE      H8Y           -15.1357047395      -15.4023461859       -7.9814059175  MEMB      121             0.0000000000
     14913       121  DOPE      C39           -13.0678044908      -14.8929373134       -8.3661789695  MEMB      121             0.0000000000
     14914       121  DOPE      H9X           -12.3265651731      -14.5263514445       -9.0915610479  MEMB      121             0.0000000000
     14915       121  DOPE      C310          -12.6150111793      -15.5013280312       -7.2574190041  MEMB      121             0.0000000000
     14916       121  DOPE      H10X          -11.5247196210      -15.4816010797       -7.1129365859  MEMB      121             0.0000000000
     14917       121  DOPE      C311          -13.3872532983      -16.1373974921       -6.1274104706  MEMB      121             0.0000000000
     14918       121  DOPE      H11X          -14.4725751933      -15.9158309029       -6.2128841128  MEMB      121             0.0000000000
     14919       121  DOPE      H11Y          -13.2600474469      -17.2391943423       -6.1920885386  MEMB      121             0.0000000000
     14920       121  DOPE      C312          -12.9010033239      -15.6263091544       -4.7763172364  MEMB      121             0.0000000000
     14921       121  DOPE      H12X          -11.7939484800      -15.6753370077       -4.6966508146  MEMB      121             0.0000000000
     14922       121  DOPE      H12Y          -13.1354701279      -16.3898842683       -4.0041130427  MEMB      121             0.0000000000
     14923       121  DOPE      C313          -13.4044165335      -14.1880664599       -4.2997598448  MEMB      121             0.0000000000
     14924       121  DOPE      H13X          -12.6492681400      -13.8038648608       -3.5811078110  MEMB      121             0.0000000000
     14925       121  DOPE      H13Y          -13.4904042152      -13.5497055576       -5.2049790826  MEMB      121             0.0000000000
     14926       121  DOPE      C314          -14.8073292656      -14.1555923100       -3.5528807979  MEMB      121             0.0000000000
     14927       121  DOPE      H14X          -15.6662642102      -14.3326965401       -4.2349266479  MEMB      121             0.0000000000
     14928       121  DOPE      H14Y          -14.8763955260      -13.1482447899       -3.0894145385  MEMB      121             0.0000000000
     14929       121  DOPE      C315          -14.8531589783      -15.1737260487       -2.3880756392  MEMB      121             0.0000000000
     14930       121  DOPE      H15X          -14.0381764245      -14.9220294191       -1.6761951097  MEMB      121             0.0000000000
     14931       121  DOPE      H15Y          -14.8384171630      -16.2292004896       -2.7345979650  MEMB      121             0.0000000000
     14932       121  DOPE      C316          -16.1327730075      -15.3024181367       -1.5322742830  MEMB      121             0.0000000000
     14933       121  DOPE      H16X          -16.9777841299      -15.6906697290       -2.1401699126  MEMB      121             0.0000000000
     14934       121  DOPE      H16Y          -16.5532220194      -14.3210099127       -1.2250585861  MEMB      121             0.0000000000
     14935       121  DOPE      C317          -15.9664207664      -16.1736337045       -0.2501645392  MEMB      121             0.0000000000
     14936       121  DOPE      H17X          -15.4698906488      -15.5918406032        0.5556259207  MEMB      121             0.0000000000
     14937       121  DOPE      H17Y          -16.8977164151      -16.4969369087        0.2621691283  MEMB      121             0.0000000000
     14938       121  DOPE      C318          -15.2406639849      -17.4979507631       -0.4412646341  MEMB      121             0.0000000000
     14939       121  DOPE      H18X          -15.2993370659      -18.2212903063        0.3999597491  MEMB      121             0.0000000000
     14940       121  DOPE      H18Y          -15.6603831998      -18.0479661813       -1.3105405744  MEMB      121             0.0000000000
     14941       121  DOPE      H18Z          -14.1952537215      -17.2310279931       -0.7062007650  MEMB      121             0.0000000000
     14942       122  DOPE      N              15.1083973169       16.2824743847      -21.2569541992  MEMB      122             0.0000000000
     14943       122  DOPE      HN1            15.2107716558       16.6198157014      -22.2353816550  MEMB      122             0.0000000000
     14944       122  DOPE      HN2            14.5639345275       16.8593068202      -20.5843290917  MEMB      122             0.0000000000
     14945       122  DOPE      HN3            16.0804564258       16.2722687365      -20.8873637125  MEMB      122             0.0000000000
     14946       122  DOPE      C12            14.6248510278       14.8699928890      -21.2504357090  MEMB      122             0.0000000000
     14947       122  DOPE      H12A           15.2480172102       14.3121843137      -21.9817595213  MEMB      122             0.0000000000
     14948       122  DOPE      H12B           13.5812643247       14.8569177301      -21.6313251857  MEMB      122             0.0000000000
     14949       122  DOPE      C11            14.5795212378       14.2531969939      -19.8639982413  MEMB      122             0.0000000000
     14950       122  DOPE      H11A           15.4524684662       14.6097841687      -19.2765207693  MEMB      122             0.0000000000
     14951       122  DOPE      H11B           14.4441025516       13.1599862379      -20.0084728425  MEMB      122             0.0000000000
     14952       122  DOPE      P              12.8739804448       13.7224736262      -17.9389161654  MEMB      122             0.0000000000
     14953       122  DOPE      O13            12.5400817127       12.4022201327      -18.4275431583  MEMB      122             0.0000000000
     14954       122  DOPE      O14            11.7819289157       14.4929921556      -17.2445602511  MEMB      122             0.0000000000
     14955       122  DOPE      O11            14.0847559913       13.5735258881      -16.9338784754  MEMB      122             0.0000000000
     14956       122  DOPE      O12            13.4748985343       14.6553999603      -19.0837138206  MEMB      122             0.0000000000
     14957       122  DOPE      C1             14.5007932274       14.6514229954      -16.0582348217  MEMB      122             0.0000000000
     14958       122  DOPE      HA             13.7840323788       15.5002802064      -16.0541981566  MEMB      122             0.0000000000
     14959       122  DOPE      HB             15.5297498872       14.9185551454      -16.3810499025  MEMB      122             0.0000000000
     14960       122  DOPE      C2             14.7705230397       14.1559854412      -14.6290106084  MEMB      122             0.0000000000
     14961       122  DOPE      HS             15.6313526449       13.4558513021      -14.6847370532  MEMB      122             0.0000000000
     14962       122  DOPE      O21            13.5898052189       13.4753940101      -14.1922927564  MEMB      122             0.0000000000
     14963       122  DOPE      C21            13.7764714688       12.5607900925      -13.2920915529  MEMB      122             0.0000000000
     14964       122  DOPE      O22            14.8588671528       12.0976212408      -12.8769543407  MEMB      122             0.0000000000
     14965       122  DOPE      C22            12.4314340646       12.1771977177      -12.6452352394  MEMB      122             0.0000000000
     14966       122  DOPE      H2R            11.8268270595       11.7401510862      -13.4684978754  MEMB      122             0.0000000000
     14967       122  DOPE      H2S            11.9158215421       13.1041636153      -12.3147826168  MEMB      122             0.0000000000
     14968       122  DOPE      C3             14.9971940440       15.3185803771      -13.7233691165  MEMB      122             0.0000000000
     14969       122  DOPE      HX             14.1071152115       15.9635286070      -13.8849932414  MEMB      122             0.0000000000
     14970       122  DOPE      HY             15.7744886021       15.9946882122      -14.1393173162  MEMB      122             0.0000000000
     14971       122  DOPE      O31            15.4435837807       15.0312198036      -12.3957563124  MEMB      122             0.0000000000
     14972       122  DOPE      C31            14.6646669796       15.5013877438      -11.4507929065  MEMB      122             0.0000000000
     14973       122  DOPE      O32            13.6460380001       16.1376601938      -11.5989706159  MEMB      122             0.0000000000
     14974       122  DOPE      C32            15.3139347283       15.0137321934      -10.1506515136  MEMB      122             0.0000000000
     14975       122  DOPE      H2X            14.8782614090       14.0173762127       -9.9230899095  MEMB      122             0.0000000000
     14976       122  DOPE      H2Y            16.4011522548       14.7971926027      -10.2240648531  MEMB      122             0.0000000000
     14977       122  DOPE      C23            12.6317712445       11.1236832959      -11.3938432543  MEMB      122             0.0000000000
     14978       122  DOPE      H3R            13.2474303706       11.7586357452      -10.7214443616  MEMB      122             0.0000000000
     14979       122  DOPE      H3S            13.1045206030       10.1779732039      -11.7351076966  MEMB      122             0.0000000000
     14980       122  DOPE      C24            11.2366931356       10.7101817082      -10.8089855070  MEMB      122             0.0000000000
     14981       122  DOPE      H4R            10.7090337861       10.2286164988      -11.6598625941  MEMB      122             0.0000000000
     14982       122  DOPE      H4S            10.7004595283       11.6684667212      -10.6402712923  MEMB      122             0.0000000000
     14983       122  DOPE      C25            11.2398426382        9.8907609373       -9.5708131514  MEMB      122             0.0000000000
     14984       122  DOPE      H5R            11.6607587563        8.8801867972       -9.7602609860  MEMB      122             0.0000000000
     14985       122  DOPE      H5S            10.2176259693        9.7532998633       -9.1578993315  MEMB      122             0.0000000000
     14986       122  DOPE      C26            11.9308368602       10.5995472538       -8.3659986026  MEMB      122             0.0000000000
     14987       122  DOPE      H6R            11.4984280986       11.6220105474       -8.3222670434  MEMB      122             0.0000000000
     14988       122  DOPE      H6S            13.0292477044       10.6736339624       -8.5154164865  MEMB      122             0.0000000000
     14989       122  DOPE      C27            11.7335739298        9.8842091268       -7.0011951514  MEMB      122             0.0000000000
     14990       122  DOPE      H7R            12.3331747403        8.9579015273       -7.1306320157  MEMB      122             0.0000000000
     14991       122  DOPE      H7S            10.6438187875        9.7187951519       -6.8619364135  MEMB      122             0.0000000000
     14992       122  DOPE      C28            12.2177653040       10.5584888869       -5.7240418081  MEMB      122             0.0000000000
     14993       122  DOPE      H8R            11.6611313937       11.5129975667       -5.6083141460  MEMB      122             0.0000000000
     14994       122  DOPE      H8S            13.2953600063       10.7820873956       -5.8760756940  MEMB      122             0.0000000000
     14995       122  DOPE      C29            11.9686097958        9.6558672516       -4.5030679717  MEMB      122             0.0000000000
     14996       122  DOPE      H9R            11.0136395077        9.6324979799       -3.9576452452  MEMB      122             0.0000000000
     14997       122  DOPE      C210           13.0000713722        8.9389522550       -3.8972223083  MEMB      122             0.0000000000
     14998       122  DOPE      H10R           12.6823751651        8.3330025158       -3.0358899752  MEMB      122             0.0000000000
     14999       122  DOPE      C211           14.4389172222        8.9071630176       -4.2823664813  MEMB      122             0.0000000000
     15000       122  DOPE      H11R           14.7426545482        9.7711136075       -4.9113767069  MEMB      122             0.0000000000
     15001       122  DOPE      H11S           14.5509426649        7.9430089840       -4.8229010945  MEMB      122             0.0000000000
     15002       122  DOPE      C212           15.4157495654        8.6764096502       -3.1063625657  MEMB      122             0.0000000000
     15003       122  DOPE      H12R           16.3724022624        8.3738896930       -3.5834566481  MEMB      122             0.0000000000
     15004       122  DOPE      H12S           15.0966051675        7.8074231681       -2.4920899468  MEMB      122             0.0000000000
     15005       122  DOPE      C213           15.5244162304        9.8158762867       -2.1156279054  MEMB      122             0.0000000000
     15006       122  DOPE      H13R           14.5373279121       10.0030651698       -1.6413517098  MEMB      122             0.0000000000
     15007       122  DOPE      H13S           15.6910878913       10.7846176784       -2.6333944371  MEMB      122             0.0000000000
     15008       122  DOPE      C214           16.5077309777        9.5973225753       -0.9288041839  MEMB      122             0.0000000000
     15009       122  DOPE      H14R           17.4829035144        9.2956659591       -1.3673957152  MEMB      122             0.0000000000
     15010       122  DOPE      H14S           16.0456189565        8.7673391111       -0.3526951809  MEMB      122             0.0000000000
     15011       122  DOPE      C215           16.7290559593       10.6837719974        0.0558145315  MEMB      122             0.0000000000
     15012       122  DOPE      H15R           17.2272135791       10.2314337674        0.9398678527  MEMB      122             0.0000000000
     15013       122  DOPE      H15S           15.7124543846       11.0408640882        0.3266042166  MEMB      122             0.0000000000
     15014       122  DOPE      C216           17.6488630089       11.8193053161       -0.4779475891  MEMB      122             0.0000000000
     15015       122  DOPE      H16R           17.4418487601       12.1902620040       -1.5045219340  MEMB      122             0.0000000000
     15016       122  DOPE      H16S           18.6070553068       11.2716142891       -0.6053158212  MEMB      122             0.0000000000
     15017       122  DOPE      C217           17.8040618634       12.9400395628        0.5300038661  MEMB      122             0.0000000000
     15018       122  DOPE      H17R           18.8136778697       13.3619390694        0.3376558637  MEMB      122             0.0000000000
     15019       122  DOPE      H17S           17.7671804424       12.6452026220        1.6005340255  MEMB      122             0.0000000000
     15020       122  DOPE      C218           16.7832327710       14.0582465757        0.2897448790  MEMB      122             0.0000000000
     15021       122  DOPE      H18R           15.7286033925       13.8312698449        0.5553749825  MEMB      122             0.0000000000
     15022       122  DOPE      H18S           16.6968253741       14.2556033109       -0.8001658094  MEMB      122             0.0000000000
     15023       122  DOPE      H18T           17.0923612057       15.0274401377        0.7363141314  MEMB      122             0.0000000000
     15024       122  DOPE      C33            15.0283982414       15.9475179408       -8.9233753489  MEMB      122             0.0000000000
     15025       122  DOPE      H3X            14.0161555483       16.3995037874       -8.8499278242  MEMB      122             0.0000000000
     15026       122  DOPE      H3Y            15.8036824175       16.7158085921       -9.1307040118  MEMB      122             0.0000000000
     15027       122  DOPE      C34            15.2908391273       15.4529832759       -7.5479479864  MEMB      122             0.0000000000
     15028       122  DOPE      H4X            16.3834868294       15.2560584041       -7.5887209132  MEMB      122             0.0000000000
     15029       122  DOPE      H4Y            15.1465206613       16.1659589161       -6.7082101840  MEMB      122             0.0000000000
     15030       122  DOPE      C35            14.5946741767       14.1288765376       -7.1915034020  MEMB      122             0.0000000000
     15031       122  DOPE      H5X            15.1534716633       13.5549520611       -6.4216484102  MEMB      122             0.0000000000
     15032       122  DOPE      H5Y            14.5332333832       13.5206999428       -8.1192246358  MEMB      122             0.0000000000
     15033       122  DOPE      C36            13.1826373014       14.3633293693       -6.6018939264  MEMB      122             0.0000000000
     15034       122  DOPE      H6X            13.1760183404       15.2302244596       -5.9070771034  MEMB      122             0.0000000000
     15035       122  DOPE      H6Y            12.8302920934       13.4763352308       -6.0331976835  MEMB      122             0.0000000000
     15036       122  DOPE      C37            12.0162370048       14.5329638308       -7.6744071704  MEMB      122             0.0000000000
     15037       122  DOPE      H7X            12.0975204541       15.5052011309       -8.2058856929  MEMB      122             0.0000000000
     15038       122  DOPE      H7Y            12.0952358239       13.7501823954       -8.4588392542  MEMB      122             0.0000000000
     15039       122  DOPE      C38            10.5749939960       14.3267708575       -7.1589738809  MEMB      122             0.0000000000
     15040       122  DOPE      H8X            10.5660248358       13.3358848768       -6.6565942688  MEMB      122             0.0000000000
     15041       122  DOPE      H8Y             9.8464470122       14.2645015498       -7.9954320197  MEMB      122             0.0000000000
     15042       122  DOPE      C39            10.0495110956       15.3823762689       -6.2429578511  MEMB      122             0.0000000000
     15043       122  DOPE      H9X            10.2063473936       16.4334019769       -6.5271181444  MEMB      122             0.0000000000
     15044       122  DOPE      C310            9.2055991802       15.1628620487       -5.1851018338  MEMB      122             0.0000000000
     15045       122  DOPE      H10X            8.9324037266       16.0420623512       -4.5831296409  MEMB      122             0.0000000000
     15046       122  DOPE      C311            8.6430906203       13.9039189437       -4.7595099226  MEMB      122             0.0000000000
     15047       122  DOPE      H11X            7.5902336817       14.1246634448       -4.4818681619  MEMB      122             0.0000000000
     15048       122  DOPE      H11Y            8.6872467264       13.0498683712       -5.4687128414  MEMB      122             0.0000000000
     15049       122  DOPE      C312            9.2143225599       13.3055577946       -3.3946419225  MEMB      122             0.0000000000
     15050       122  DOPE      H12X           10.3236991633       13.2468494307       -3.4072066979  MEMB      122             0.0000000000
     15051       122  DOPE      H12Y            8.7083438545       12.3309218323       -3.2261442021  MEMB      122             0.0000000000
     15052       122  DOPE      C313            8.8449293583       14.1164325271       -2.2032731774  MEMB      122             0.0000000000
     15053       122  DOPE      H13X            9.4715496898       15.0266245878       -2.0883006200  MEMB      122             0.0000000000
     15054       122  DOPE      H13Y            7.7696000345       14.3794664780       -2.2970880771  MEMB      122             0.0000000000
     15055       122  DOPE      C314            8.9731237840       13.4980177499       -0.7869369062  MEMB      122             0.0000000000
     15056       122  DOPE      H14X            8.3189368984       12.6122409281       -0.6394226329  MEMB      122             0.0000000000
     15057       122  DOPE      H14Y            8.6426995727       14.2699292764       -0.0594102759  MEMB      122             0.0000000000
     15058       122  DOPE      C315           10.3573175215       12.9970340599       -0.5128801049  MEMB      122             0.0000000000
     15059       122  DOPE      H15X           10.6368364854       12.1883907579       -1.2216027383  MEMB      122             0.0000000000
     15060       122  DOPE      H15Y           10.4665450901       12.6135606707        0.5241039269  MEMB      122             0.0000000000
     15061       122  DOPE      C316           11.3785768788       14.1215379961       -0.7644319464  MEMB      122             0.0000000000
     15062       122  DOPE      H16X           11.0345452358       14.9942741671       -0.1692053988  MEMB      122             0.0000000000
     15063       122  DOPE      H16Y           11.3707240680       14.3607864945       -1.8493357958  MEMB      122             0.0000000000
     15064       122  DOPE      C317           12.8884373674       13.8851696694       -0.4518804770  MEMB      122             0.0000000000
     15065       122  DOPE      H17X           13.4320434261       14.7862803279       -0.8079890580  MEMB      122             0.0000000000
     15066       122  DOPE      H17Y           13.0632319511       13.8465808606        0.6446042541  MEMB      122             0.0000000000
     15067       122  DOPE      C318           13.3743720807       12.4742275741       -0.9368268218  MEMB      122             0.0000000000
     15068       122  DOPE      H18X           14.3911471772       12.3592943901       -0.5040695048  MEMB      122             0.0000000000
     15069       122  DOPE      H18Y           12.7181259058       11.6927159160       -0.4976212194  MEMB      122             0.0000000000
     15070       122  DOPE      H18Z           13.4567374579       12.4880634135       -2.0446836340  MEMB      122             0.0000000000
     15071       123  DOPE      N             -19.6938694469       -2.4881839090      -17.1569901773  MEMB      123             0.0000000000
     15072       123  DOPE      HN1           -19.6058512029       -2.5248554099      -16.1213705352  MEMB      123             0.0000000000
     15073       123  DOPE      HN2           -20.6758740771       -2.5160662274      -17.4982957075  MEMB      123             0.0000000000
     15074       123  DOPE      HN3           -19.2826124762       -3.2906504073      -17.6751748216  MEMB      123             0.0000000000
     15075       123  DOPE      C12           -19.1242777260       -1.3038210854      -17.7956473344  MEMB      123             0.0000000000
     15076       123  DOPE      H12A          -18.0613117042       -1.5562661916      -17.9973793721  MEMB      123             0.0000000000
     15077       123  DOPE      H12B          -19.1986287868       -0.3996798877      -17.1543038873  MEMB      123             0.0000000000
     15078       123  DOPE      C11           -19.7619597396       -1.0146177330      -19.1592503699  MEMB      123             0.0000000000
     15079       123  DOPE      H11A          -19.7559127210       -1.9813577022      -19.7066973865  MEMB      123             0.0000000000
     15080       123  DOPE      H11B          -19.2461063159       -0.1731168236      -19.6692430164  MEMB      123             0.0000000000
     15081       123  DOPE      P             -21.8186844786        0.4558026206      -19.6324770282  MEMB      123             0.0000000000
     15082       123  DOPE      O13           -23.2807904702        0.5988301302      -19.1861786732  MEMB      123             0.0000000000
     15083       123  DOPE      O14           -21.5424274280        0.2761932646      -21.1033658498  MEMB      123             0.0000000000
     15084       123  DOPE      O11           -20.9877389375        1.7576528091      -19.1204185768  MEMB      123             0.0000000000
     15085       123  DOPE      O12           -21.1608293764       -0.7234694389      -18.8456719869  MEMB      123             0.0000000000
     15086       123  DOPE      C1            -21.4152145462        3.0711946990      -19.2418133934  MEMB      123             0.0000000000
     15087       123  DOPE      HA            -22.5113824461        3.2362551545      -19.3159218077  MEMB      123             0.0000000000
     15088       123  DOPE      HB            -20.9472633084        3.2758121543      -20.2284614463  MEMB      123             0.0000000000
     15089       123  DOPE      C2            -20.7974762676        4.0046014858      -18.1779233657  MEMB      123             0.0000000000
     15090       123  DOPE      HS            -20.9059903952        5.0507353768      -18.5359031701  MEMB      123             0.0000000000
     15091       123  DOPE      O21           -19.4866633631        3.6101100108      -18.1251201097  MEMB      123             0.0000000000
     15092       123  DOPE      C21           -18.7113714107        4.1512003275      -17.2043535429  MEMB      123             0.0000000000
     15093       123  DOPE      O22           -18.9801317976        5.0853600399      -16.5524108621  MEMB      123             0.0000000000
     15094       123  DOPE      C22           -17.4445561947        3.2454114044      -17.0265325670  MEMB      123             0.0000000000
     15095       123  DOPE      H2R           -16.6864942659        3.8277250168      -16.4603405667  MEMB      123             0.0000000000
     15096       123  DOPE      H2S           -16.9707595867        3.1685350855      -18.0284944550  MEMB      123             0.0000000000
     15097       123  DOPE      C3            -21.5410831399        3.8923208978      -16.8813749360  MEMB      123             0.0000000000
     15098       123  DOPE      HX            -22.6024490437        4.1507763577      -17.0839188385  MEMB      123             0.0000000000
     15099       123  DOPE      HY            -21.1580006491        4.5776163696      -16.0952842072  MEMB      123             0.0000000000
     15100       123  DOPE      O31           -21.4691401050        2.5131882197      -16.4162356426  MEMB      123             0.0000000000
     15101       123  DOPE      C31           -22.2823838514        2.3312883209      -15.3986776397  MEMB      123             0.0000000000
     15102       123  DOPE      O32           -23.0298824169        3.1794965707      -14.9114518139  MEMB      123             0.0000000000
     15103       123  DOPE      C32           -22.0203007865        1.0040441944      -14.8251330361  MEMB      123             0.0000000000
     15104       123  DOPE      H2X           -22.3495159237        0.2792755419      -15.6001482891  MEMB      123             0.0000000000
     15105       123  DOPE      H2Y           -20.9296059108        0.9258924043      -14.6286685867  MEMB      123             0.0000000000
     15106       123  DOPE      C23           -17.7193816768        1.8813263756      -16.2690240410  MEMB      123             0.0000000000
     15107       123  DOPE      H3R           -17.2472843317        1.0529400199      -16.8393054855  MEMB      123             0.0000000000
     15108       123  DOPE      H3S           -18.7975677551        1.6185454886      -16.3217651755  MEMB      123             0.0000000000
     15109       123  DOPE      C24           -17.1093267146        1.8398446962      -14.8422109023  MEMB      123             0.0000000000
     15110       123  DOPE      H4R           -17.6051578541        2.4756728852      -14.0778841056  MEMB      123             0.0000000000
     15111       123  DOPE      H4S           -16.0398897166        2.1400224401      -14.8649846347  MEMB      123             0.0000000000
     15112       123  DOPE      C25           -16.9917052504        0.3286641568      -14.3008150489  MEMB      123             0.0000000000
     15113       123  DOPE      H5R           -16.3959975885       -0.2306848545      -15.0535318336  MEMB      123             0.0000000000
     15114       123  DOPE      H5S           -18.0113096474       -0.1125540561      -14.2934616139  MEMB      123             0.0000000000
     15115       123  DOPE      C26           -16.2606115090        0.2864215167      -12.8799639480  MEMB      123             0.0000000000
     15116       123  DOPE      H6R           -15.3622989342        0.9336801298      -12.7882507028  MEMB      123             0.0000000000
     15117       123  DOPE      H6S           -16.0384929917       -0.7866381542      -12.6968595007  MEMB      123             0.0000000000
     15118       123  DOPE      C27           -17.2149584637        0.5423521026      -11.7102816506  MEMB      123             0.0000000000
     15119       123  DOPE      H7R           -18.1570570056        0.0055638249      -11.9524166215  MEMB      123             0.0000000000
     15120       123  DOPE      H7S           -17.3516016841        1.6425663640      -11.6383229204  MEMB      123             0.0000000000
     15121       123  DOPE      C28           -16.8811680040        0.0023972504      -10.2551388511  MEMB      123             0.0000000000
     15122       123  DOPE      H8R           -16.0127752714        0.5994257634       -9.9033263761  MEMB      123             0.0000000000
     15123       123  DOPE      H8S           -16.4805594282       -1.0294115575      -10.3510782856  MEMB      123             0.0000000000
     15124       123  DOPE      C29           -17.9886074982       -0.0094977469       -9.2494903997  MEMB      123             0.0000000000
     15125       123  DOPE      H9R           -18.9443366689       -0.1074735369       -9.7851969356  MEMB      123             0.0000000000
     15126       123  DOPE      C210          -17.8851169048       -0.0174971984       -7.8665913486  MEMB      123             0.0000000000
     15127       123  DOPE      H10R          -18.7835825062       -0.2043414287       -7.2600862191  MEMB      123             0.0000000000
     15128       123  DOPE      C211          -16.6298449615       -0.0528961650       -7.0594911923  MEMB      123             0.0000000000
     15129       123  DOPE      H11R          -16.7119516974        0.5842874952       -6.1530827855  MEMB      123             0.0000000000
     15130       123  DOPE      H11S          -15.8773635135        0.6402033764       -7.4927413303  MEMB      123             0.0000000000
     15131       123  DOPE      C212          -15.9658638392       -1.2857881779       -6.4977235537  MEMB      123             0.0000000000
     15132       123  DOPE      H12R          -15.1762662708       -1.0041568590       -5.7686546044  MEMB      123             0.0000000000
     15133       123  DOPE      H12S          -15.3668006808       -1.6802272749       -7.3461698028  MEMB      123             0.0000000000
     15134       123  DOPE      C213          -16.8165218559       -2.4838557135       -5.9667913960  MEMB      123             0.0000000000
     15135       123  DOPE      H13R          -16.1842875643       -3.2743511519       -5.5088405409  MEMB      123             0.0000000000
     15136       123  DOPE      H13S          -17.3770837904       -2.9657609263       -6.7961630889  MEMB      123             0.0000000000
     15137       123  DOPE      C214          -17.7395604086       -1.9856952417       -4.9164710273  MEMB      123             0.0000000000
     15138       123  DOPE      H14R          -18.4116822244       -2.7474848466       -4.4667488893  MEMB      123             0.0000000000
     15139       123  DOPE      H14S          -18.4264443903       -1.1545669099       -5.1843085977  MEMB      123             0.0000000000
     15140       123  DOPE      C215          -16.9981943491       -1.3247919933       -3.7739623654  MEMB      123             0.0000000000
     15141       123  DOPE      H15R          -16.3066901761       -0.5230881236       -4.1107311770  MEMB      123             0.0000000000
     15142       123  DOPE      H15S          -16.3423061095       -2.0860646174       -3.3000465798  MEMB      123             0.0000000000
     15143       123  DOPE      C216          -17.9955971275       -0.8465765796       -2.7457235575  MEMB      123             0.0000000000
     15144       123  DOPE      H16R          -17.7587589682       -1.3551737384       -1.7867880394  MEMB      123             0.0000000000
     15145       123  DOPE      H16S          -19.0679042631       -1.0080834491       -2.9873710937  MEMB      123             0.0000000000
     15146       123  DOPE      C217          -17.8706858555        0.5989477384       -2.4098819873  MEMB      123             0.0000000000
     15147       123  DOPE      H17R          -18.0490961429        1.2332053559       -3.3044259747  MEMB      123             0.0000000000
     15148       123  DOPE      H17S          -16.8034698937        0.7805596199       -2.1601071350  MEMB      123             0.0000000000
     15149       123  DOPE      C218          -18.8898321578        1.0182232455       -1.3095414002  MEMB      123             0.0000000000
     15150       123  DOPE      H18R          -18.8293907625        2.0499844225       -0.9019425778  MEMB      123             0.0000000000
     15151       123  DOPE      H18S          -18.8357300190        0.3225831110       -0.4449740089  MEMB      123             0.0000000000
     15152       123  DOPE      H18T          -19.8530878346        1.0549090406       -1.8619137757  MEMB      123             0.0000000000
     15153       123  DOPE      C33           -22.7677360063        0.7883697367      -13.4761994600  MEMB      123             0.0000000000
     15154       123  DOPE      H3X           -22.5898615323       -0.2621218785      -13.1613198011  MEMB      123             0.0000000000
     15155       123  DOPE      H3Y           -23.8606557548        0.8652101212      -13.6604354627  MEMB      123             0.0000000000
     15156       123  DOPE      C34           -22.3249684020        1.6838611814      -12.3047671323  MEMB      123             0.0000000000
     15157       123  DOPE      H4X           -21.2424372610        1.5267984348      -12.1104005214  MEMB      123             0.0000000000
     15158       123  DOPE      H4Y           -22.4841439991        2.7547244810      -12.5542381194  MEMB      123             0.0000000000
     15159       123  DOPE      C35           -23.1030084834        1.3497820849      -11.0613785956  MEMB      123             0.0000000000
     15160       123  DOPE      H5X           -22.9579311177        0.2707671847      -10.8400187760  MEMB      123             0.0000000000
     15161       123  DOPE      H5Y           -24.1655291839        1.5427218648      -11.3224260335  MEMB      123             0.0000000000
     15162       123  DOPE      C36           -22.6159682835        2.0773751294       -9.7673957331  MEMB      123             0.0000000000
     15163       123  DOPE      H6X           -22.7709516336        3.1664756808       -9.9228349286  MEMB      123             0.0000000000
     15164       123  DOPE      H6Y           -21.5500503619        2.0287593018       -9.4579185914  MEMB      123             0.0000000000
     15165       123  DOPE      C37           -23.4399800484        1.7098471152       -8.5142249314  MEMB      123             0.0000000000
     15166       123  DOPE      H7X           -24.5354756298        1.6332761098       -8.6825917516  MEMB      123             0.0000000000
     15167       123  DOPE      H7Y           -23.1714407157        0.7050823433       -8.1235138400  MEMB      123             0.0000000000
     15168       123  DOPE      C38           -23.3420325365        2.6591412949       -7.3243502211  MEMB      123             0.0000000000
     15169       123  DOPE      H8X           -24.0029919691        2.2695354501       -6.5208205558  MEMB      123             0.0000000000
     15170       123  DOPE      H8Y           -23.6321356775        3.6666018467       -7.6920247881  MEMB      123             0.0000000000
     15171       123  DOPE      C39           -21.9125795082        2.7326010555       -6.7806492974  MEMB      123             0.0000000000
     15172       123  DOPE      H9X           -21.1552126925        3.1848889010       -7.4377875309  MEMB      123             0.0000000000
     15173       123  DOPE      C310          -21.4099725783        2.2815295774       -5.5803934116  MEMB      123             0.0000000000
     15174       123  DOPE      H10X          -20.3289597097        2.3202515394       -5.3806140254  MEMB      123             0.0000000000
     15175       123  DOPE      C311          -22.1922773380        1.5741630361       -4.5207766454  MEMB      123             0.0000000000
     15176       123  DOPE      H11X          -22.9778607836        0.8880410909       -4.9034207808  MEMB      123             0.0000000000
     15177       123  DOPE      H11Y          -21.4858841651        0.9038671390       -3.9859557369  MEMB      123             0.0000000000
     15178       123  DOPE      C312          -22.8183764636        2.4784515435       -3.3730794168  MEMB      123             0.0000000000
     15179       123  DOPE      H12X          -23.7406421068        2.9130340649       -3.8145377007  MEMB      123             0.0000000000
     15180       123  DOPE      H12Y          -22.0423732999        3.2416981751       -3.1503807985  MEMB      123             0.0000000000
     15181       123  DOPE      C313          -23.1973718620        1.6045371116       -2.0993956028  MEMB      123             0.0000000000
     15182       123  DOPE      H13X          -22.3155721867        0.9478110156       -1.9398298831  MEMB      123             0.0000000000
     15183       123  DOPE      H13Y          -23.2412574681        2.2915582010       -1.2273876326  MEMB      123             0.0000000000
     15184       123  DOPE      C314          -24.4307648001        0.7331403467       -2.1923402063  MEMB      123             0.0000000000
     15185       123  DOPE      H14X          -24.4370138530        0.2190023315       -3.1771971173  MEMB      123             0.0000000000
     15186       123  DOPE      H14Y          -25.3215435959        1.3822169033       -2.0525778261  MEMB      123             0.0000000000
     15187       123  DOPE      C315          -24.4768202341       -0.3218702028       -1.0180846282  MEMB      123             0.0000000000
     15188       123  DOPE      H15X          -25.4823450908       -0.7943173743       -1.0121476624  MEMB      123             0.0000000000
     15189       123  DOPE      H15Y          -24.4941846330        0.3191779643       -0.1108486287  MEMB      123             0.0000000000
     15190       123  DOPE      C316          -23.3018243362       -1.2781620910       -0.8916946253  MEMB      123             0.0000000000
     15191       123  DOPE      H16X          -22.3768559616       -0.6836965087       -0.7324319282  MEMB      123             0.0000000000
     15192       123  DOPE      H16Y          -23.1586557629       -1.7672169991       -1.8789363472  MEMB      123             0.0000000000
     15193       123  DOPE      C317          -23.4917442971       -2.3191938177        0.1602572434  MEMB      123             0.0000000000
     15194       123  DOPE      H17X          -24.3417819230       -2.9980341109       -0.0654264420  MEMB      123             0.0000000000
     15195       123  DOPE      H17Y          -22.5469222053       -2.9008853483        0.2174099545  MEMB      123             0.0000000000
     15196       123  DOPE      C318          -23.7900852645       -1.8064384690        1.5346157218  MEMB      123             0.0000000000
     15197       123  DOPE      H18X          -23.8461433278       -2.6861817915        2.2108024755  MEMB      123             0.0000000000
     15198       123  DOPE      H18Y          -23.0396813347       -1.0715760760        1.8968207696  MEMB      123             0.0000000000
     15199       123  DOPE      H18Z          -24.7071056179       -1.1823987593        1.5976131268  MEMB      123             0.0000000000
     15200       124  23SM      N              20.8301031002       -2.2365201159      -26.3908862865  MEMB      124             0.0000000000
     15201       124  23SM      C15            19.4972007914       -1.9274352042      -26.9946640606  MEMB      124             0.0000000000
     15202       124  23SM      H15A           19.1360396621       -0.9422714905      -26.7389006142  MEMB      124             0.0000000000
     15203       124  23SM      H15B           18.8341899028       -2.7760316730      -26.9128065990  MEMB      124             0.0000000000
     15204       124  23SM      H15C           19.7364471980       -1.8552627100      -28.0453554171  MEMB      124             0.0000000000
     15205       124  23SM      C14            20.7442034626       -2.3311829709      -24.8960709897  MEMB      124             0.0000000000
     15206       124  23SM      H14A           19.8870850553       -2.9580690571      -24.6991910647  MEMB      124             0.0000000000
     15207       124  23SM      H14B           20.6512083361       -1.3035529718      -24.5771219402  MEMB      124             0.0000000000
     15208       124  23SM      H14C           21.6194449923       -2.8711502177      -24.5662409997  MEMB      124             0.0000000000
     15209       124  23SM      C13            21.3731158652       -3.4967087574      -26.9668902611  MEMB      124             0.0000000000
     15210       124  23SM      H13A           21.4545797733       -3.3974708599      -28.0392312891  MEMB      124             0.0000000000
     15211       124  23SM      H13B           20.7385845776       -4.3451514414      -26.7573305615  MEMB      124             0.0000000000
     15212       124  23SM      H13C           22.3656176068       -3.6434547283      -26.5671327076  MEMB      124             0.0000000000
     15213       124  23SM      C12            21.8778262567       -1.2123952387      -26.8747985528  MEMB      124             0.0000000000
     15214       124  23SM      H12A           21.7190106070       -1.0682972441      -27.9332944149  MEMB      124             0.0000000000
     15215       124  23SM      H12B           22.7694013432       -1.8216515497      -26.8921431377  MEMB      124             0.0000000000
     15216       124  23SM      C11            21.9859597774        0.1976945684      -26.2563660003  MEMB      124             0.0000000000
     15217       124  23SM      H11A           22.4037060414        0.9131836364      -26.9965581667  MEMB      124             0.0000000000
     15218       124  23SM      H11B           22.6181743050        0.1699207151      -25.3432097120  MEMB      124             0.0000000000
     15219       124  23SM      P              20.2670298569        2.1095132623      -25.6229506654  MEMB      124             0.0000000000
     15220       124  23SM      O13            21.3111732053        3.0408559100      -26.0300955813  MEMB      124             0.0000000000
     15221       124  23SM      O14            18.8914851325        2.4500906044      -26.0176045129  MEMB      124             0.0000000000
     15222       124  23SM      O11            20.3978267898        2.1909853171      -24.0135085161  MEMB      124             0.0000000000
     15223       124  23SM      O12            20.6529759136        0.6358128439      -25.9361645746  MEMB      124             0.0000000000
     15224       124  23SM      C1S            19.4147735266        1.8546762592      -23.1076239462  MEMB      124             0.0000000000
     15225       124  23SM      H1S            19.0613754438        0.8217345441      -23.3136876278  MEMB      124             0.0000000000
     15226       124  23SM      H1T            18.6875572899        2.6800625772      -23.2632357017  MEMB      124             0.0000000000
     15227       124  23SM      NF             19.0268298741        1.7101485358      -20.7707316583  MEMB      124             0.0000000000
     15228       124  23SM      HNF            18.6502025292        2.5723700567      -20.4409816435  MEMB      124             0.0000000000
     15229       124  23SM      C2S            20.0867770239        1.8905657320      -21.7075906891  MEMB      124             0.0000000000
     15230       124  23SM      H2S            20.8390941878        1.0922438782      -21.5314594174  MEMB      124             0.0000000000
     15231       124  23SM      C3S            20.8280073731        3.2247473226      -21.3887497907  MEMB      124             0.0000000000
     15232       124  23SM      H3S            20.1633662957        4.1034893453      -21.5315284423  MEMB      124             0.0000000000
     15233       124  23SM      O3             21.9943222793        3.3051922202      -22.2176274250  MEMB      124             0.0000000000
     15234       124  23SM      HO3            21.9775271231        2.5815885226      -22.8482744047  MEMB      124             0.0000000000
     15235       124  23SM      C4S            21.2786375302        3.2164405308      -19.9493285942  MEMB      124             0.0000000000
     15236       124  23SM      H4S            21.7959239685        2.3483618329      -19.5147550681  MEMB      124             0.0000000000
     15237       124  23SM      C5S            21.0489545596        4.2192593466      -19.0706482801  MEMB      124             0.0000000000
     15238       124  23SM      H5S            20.3736885397        5.0166907004      -19.4143326655  MEMB      124             0.0000000000
     15239       124  23SM      C6S            21.4955654864        4.1718817916      -17.6203326532  MEMB      124             0.0000000000
     15240       124  23SM      H6S            20.5657907949        4.2335783106      -17.0153255920  MEMB      124             0.0000000000
     15241       124  23SM      H6T            22.0116197909        5.1156692499      -17.3423509382  MEMB      124             0.0000000000
     15242       124  23SM      C7S            22.2504120113        3.0025712432      -17.0710434510  MEMB      124             0.0000000000
     15243       124  23SM      H7S            23.1178287437        2.8478457420      -17.7477768281  MEMB      124             0.0000000000
     15244       124  23SM      H7T            21.5524804416        2.1432439097      -17.1646864655  MEMB      124             0.0000000000
     15245       124  23SM      C8S            22.8105338847        2.9722291172      -15.6533427247  MEMB      124             0.0000000000
     15246       124  23SM      H8S            23.5033137084        3.8132829470      -15.4365351706  MEMB      124             0.0000000000
     15247       124  23SM      H8T            23.2851641816        1.9862934011      -15.4610463977  MEMB      124             0.0000000000
     15248       124  23SM      C9S            21.6857363635        3.1232169508      -14.6109752192  MEMB      124             0.0000000000
     15249       124  23SM      H9S            20.8848542842        2.3535236189      -14.5890425500  MEMB      124             0.0000000000
     15250       124  23SM      H9T            21.2364208545        4.1255946048      -14.7773349641  MEMB      124             0.0000000000
     15251       124  23SM      C10S           22.2399989436        3.2799535740      -13.1662421531  MEMB      124             0.0000000000
     15252       124  23SM      H10S           22.7372546567        4.2632036261      -13.0238449337  MEMB      124             0.0000000000
     15253       124  23SM      H10T           22.8471185377        2.3661005302      -12.9913146641  MEMB      124             0.0000000000
     15254       124  23SM      C11S           21.0872022784        3.3526124377      -12.1438060078  MEMB      124             0.0000000000
     15255       124  23SM      H11S           20.4210996776        2.4716188854      -12.2641343460  MEMB      124             0.0000000000
     15256       124  23SM      H11T           20.4798219145        4.2548656319      -12.3704094428  MEMB      124             0.0000000000
     15257       124  23SM      C12S           21.5294656069        3.3505456933      -10.6295838777  MEMB      124             0.0000000000
     15258       124  23SM      H12S           22.2674175555        4.1581387278      -10.4358281558  MEMB      124             0.0000000000
     15259       124  23SM      H12T           21.8901959742        2.3477885718      -10.3154617891  MEMB      124             0.0000000000
     15260       124  23SM      C13S           20.3263848901        3.5742353477       -9.6590036535  MEMB      124             0.0000000000
     15261       124  23SM      H13S           19.5357422387        2.8501455014       -9.9503788480  MEMB      124             0.0000000000
     15262       124  23SM      H13T           19.9096871310        4.5566703018       -9.9680441464  MEMB      124             0.0000000000
     15263       124  23SM      C14S           20.6404776868        3.4783791354       -8.1321130364  MEMB      124             0.0000000000
     15264       124  23SM      H14S           21.1571192093        4.4400311111       -7.9256466069  MEMB      124             0.0000000000
     15265       124  23SM      H14T           21.2810568807        2.5772072394       -8.0231699545  MEMB      124             0.0000000000
     15266       124  23SM      C15S           19.4134689947        3.3992948767       -7.2098446541  MEMB      124             0.0000000000
     15267       124  23SM      H15S           18.9082010599        2.4295737306       -7.4064816571  MEMB      124             0.0000000000
     15268       124  23SM      H15T           18.7477679673        4.2537650229       -7.4569153262  MEMB      124             0.0000000000
     15269       124  23SM      C16S           19.8000965275        3.4084785933       -5.7806906513  MEMB      124             0.0000000000
     15270       124  23SM      H16S           20.3832984333        4.3353385851       -5.5932692171  MEMB      124             0.0000000000
     15271       124  23SM      H16T           20.4351982630        2.5410087945       -5.5005781233  MEMB      124             0.0000000000
     15272       124  23SM      C17S           18.5357940820        3.3084223794       -4.9522004935  MEMB      124             0.0000000000
     15273       124  23SM      H17S           18.0140256131        2.3375584983       -5.0918511921  MEMB      124             0.0000000000
     15274       124  23SM      H17T           17.9382444947        4.2066690128       -5.2175467510  MEMB      124             0.0000000000
     15275       124  23SM      C18S           18.8606723194        3.5529573729       -3.4650247833  MEMB      124             0.0000000000
     15276       124  23SM      H18S           19.0227344804        4.6320856018       -3.2563649210  MEMB      124             0.0000000000
     15277       124  23SM      H18T           19.7110188806        2.8953833083       -3.1842619256  MEMB      124             0.0000000000
     15278       124  23SM      H18U           18.0779237048        3.1901452091       -2.7650303908  MEMB      124             0.0000000000
     15279       124  23SM      C1F            18.4055160496        0.5493914544      -20.5695188577  MEMB      124             0.0000000000
     15280       124  23SM      OF             18.7830294082       -0.5820551313      -20.9740381211  MEMB      124             0.0000000000
     15281       124  23SM      C2F            17.1904868737        0.6181452512      -19.8476648551  MEMB      124             0.0000000000
     15282       124  23SM      H2F            16.3547710558        0.7156413873      -20.5731952629  MEMB      124             0.0000000000
     15283       124  23SM      H2G            17.0385668147        1.5442914100      -19.2531105530  MEMB      124             0.0000000000
     15284       124  23SM      C3F            16.9793194997       -0.6028656259      -18.9586667174  MEMB      124             0.0000000000
     15285       124  23SM      H3F            17.0708131102       -1.5904367079      -19.4593191731  MEMB      124             0.0000000000
     15286       124  23SM      H3G            15.9292266348       -0.4762422119      -18.6186771531  MEMB      124             0.0000000000
     15287       124  23SM      C4F            17.7307137874       -0.6923060398      -17.5708589888  MEMB      124             0.0000000000
     15288       124  23SM      H4F            17.3055810520       -1.5119570778      -16.9529950335  MEMB      124             0.0000000000
     15289       124  23SM      H4G            17.6606195987        0.2961362327      -17.0684743601  MEMB      124             0.0000000000
     15290       124  23SM      C5F            19.1806859667       -1.2026330789      -17.5838217281  MEMB      124             0.0000000000
     15291       124  23SM      H5F            19.7189270743       -0.4847243137      -18.2389736822  MEMB      124             0.0000000000
     15292       124  23SM      H5G            19.0239824167       -2.1685874984      -18.1098416511  MEMB      124             0.0000000000
     15293       124  23SM      C6F            19.8130838795       -1.2468745955      -16.2184284475  MEMB      124             0.0000000000
     15294       124  23SM      H6F            19.3099465107       -0.6030972112      -15.4656166620  MEMB      124             0.0000000000
     15295       124  23SM      H6G            20.8086966728       -0.7893646560      -16.4021695451  MEMB      124             0.0000000000
     15296       124  23SM      C7F            20.1791802817       -2.6827466647      -15.6624628960  MEMB      124             0.0000000000
     15297       124  23SM      H7F            20.8803877436       -3.0421095295      -16.4457178892  MEMB      124             0.0000000000
     15298       124  23SM      H7G            19.2485669205       -3.2756520950      -15.5330688263  MEMB      124             0.0000000000
     15299       124  23SM      C8F            20.8482012657       -2.7178795364      -14.2307335638  MEMB      124             0.0000000000
     15300       124  23SM      H8F            21.3104448227       -3.7275512385      -14.1958767615  MEMB      124             0.0000000000
     15301       124  23SM      H8G            20.0190056043       -2.6373391241      -13.4957044366  MEMB      124             0.0000000000
     15302       124  23SM      C9F            21.7788058917       -1.5857495054      -13.9906159356  MEMB      124             0.0000000000
     15303       124  23SM      H9F            21.1748088867       -0.6564104106      -13.9142124333  MEMB      124             0.0000000000
     15304       124  23SM      H9G            22.4384126101       -1.4654069719      -14.8764811161  MEMB      124             0.0000000000
     15305       124  23SM      C10F           22.6194205441       -1.5676819841      -12.6796216846  MEMB      124             0.0000000000
     15306       124  23SM      H10F           23.2385151864       -0.6481920716      -12.6049178769  MEMB      124             0.0000000000
     15307       124  23SM      H10G           23.2630252528       -2.4517370257      -12.4833041351  MEMB      124             0.0000000000
     15308       124  23SM      C11F           21.7732152191       -1.4859393694      -11.3959141890  MEMB      124             0.0000000000
     15309       124  23SM      H11F           21.2507886945       -2.4651800537      -11.3461222907  MEMB      124             0.0000000000
     15310       124  23SM      H11G           20.9969675920       -0.7313762289      -11.6457039649  MEMB      124             0.0000000000
     15311       124  23SM      C12F           22.5209272149       -1.0769311714      -10.2201684617  MEMB      124             0.0000000000
     15312       124  23SM      H12F           23.0014114936       -0.1029407266      -10.4542595924  MEMB      124             0.0000000000
     15313       124  23SM      H12G           23.2926001488       -1.7902993543       -9.8596859179  MEMB      124             0.0000000000
     15314       124  23SM      C13F           21.5441816850       -0.9145734608       -9.0703940783  MEMB      124             0.0000000000
     15315       124  23SM      H13F           20.5660729187       -0.4407837570       -9.3009320658  MEMB      124             0.0000000000
     15316       124  23SM      H13G           21.9280634821       -0.3041780624       -8.2251868785  MEMB      124             0.0000000000
     15317       124  23SM      C14F           21.1663959616       -2.2960701831       -8.4410280838  MEMB      124             0.0000000000
     15318       124  23SM      H14F           22.0110711936       -2.4532249112       -7.7366517850  MEMB      124             0.0000000000
     15319       124  23SM      H14G           21.1296692337       -3.1271448818       -9.1774296387  MEMB      124             0.0000000000
     15320       124  23SM      C15F           19.8968273143       -2.3336157901       -7.5873159373  MEMB      124             0.0000000000
     15321       124  23SM      H15F           19.4184677634       -3.3288861672       -7.7095047474  MEMB      124             0.0000000000
     15322       124  23SM      H15G           19.1959161834       -1.6264665866       -8.0802507792  MEMB      124             0.0000000000
     15323       124  23SM      C16F           20.1121715429       -2.0672181672       -6.1180690912  MEMB      124             0.0000000000
     15324       124  23SM      H16F           20.7737683730       -1.1930349889       -5.9380277992  MEMB      124             0.0000000000
     15325       124  23SM      H16G           20.7167234890       -2.9080746150       -5.7158271995  MEMB      124             0.0000000000
     15326       124  23SM      C17F           18.8122112105       -2.1204305177       -5.2674511139  MEMB      124             0.0000000000
     15327       124  23SM      H17F           18.3777788034       -3.1015084117       -5.5556797904  MEMB      124             0.0000000000
     15328       124  23SM      H17G           18.1364419972       -1.2658367877       -5.4849967548  MEMB      124             0.0000000000
     15329       124  23SM      C18F           19.1766789846       -2.1652075984       -3.7852963982  MEMB      124             0.0000000000
     15330       124  23SM      H18F           19.8647258162       -1.3510663687       -3.4721088332  MEMB      124             0.0000000000
     15331       124  23SM      H18G           19.7798369249       -3.0696872939       -3.5563027525  MEMB      124             0.0000000000
     15332       124  23SM      C19F           18.0586228001       -2.2199719345       -2.7140618065  MEMB      124             0.0000000000
     15333       124  23SM      H19F           18.5844807332       -2.3838263504       -1.7492060746  MEMB      124             0.0000000000
     15334       124  23SM      H19G           17.3504198119       -3.0699802985       -2.8153304001  MEMB      124             0.0000000000
     15335       124  23SM      C20F           17.3507593068       -0.8395483829       -2.6219583222  MEMB      124             0.0000000000
     15336       124  23SM      H20F           16.7063024143       -0.6059024721       -3.4962624375  MEMB      124             0.0000000000
     15337       124  23SM      H20G           18.1588892690       -0.0885507973       -2.7532971025  MEMB      124             0.0000000000
     15338       124  23SM      C21F           16.4326756034       -0.6201589091       -1.3516530821  MEMB      124             0.0000000000
     15339       124  23SM      H21F           17.0115868220       -0.7176890716       -0.4084294970  MEMB      124             0.0000000000
     15340       124  23SM      H21G           15.5895036004       -1.3402194843       -1.4216147869  MEMB      124             0.0000000000
     15341       124  23SM      C22F           15.8475735259        0.7805041871       -1.3241638453  MEMB      124             0.0000000000
     15342       124  23SM      H22F           15.4501576142        1.0389246968       -2.3289512994  MEMB      124             0.0000000000
     15343       124  23SM      H22G           16.7008780356        1.4430700105       -1.0649353852  MEMB      124             0.0000000000
     15344       124  23SM      C23F           14.8242112194        1.0131111270       -0.3071365386  MEMB      124             0.0000000000
     15345       124  23SM      H23F           13.9118322662        0.4545617122       -0.6069841428  MEMB      124             0.0000000000
     15346       124  23SM      H23G           14.7210189005        2.1127694452       -0.1870364924  MEMB      124             0.0000000000
     15347       124  23SM      H23H           15.1511057310        0.6356424787        0.6853242370  MEMB      124             0.0000000000
     15348       125  DOPC      N              -6.7484060133       18.5600657701      -19.3822185390  MEMB      125             0.0000000000
     15349       125  DOPC      C12            -6.8878911601       20.0792339594      -19.6305200913  MEMB      125             0.0000000000
     15350       125  DOPC      H12A           -7.5267018634       20.2340559530      -20.4874629503  MEMB      125             0.0000000000
     15351       125  DOPC      H12B           -5.8968882583       20.4523012047      -19.8429678282  MEMB      125             0.0000000000
     15352       125  DOPC      C13            -5.8240554234       17.9353219888      -20.3562514675  MEMB      125             0.0000000000
     15353       125  DOPC      H13A           -6.2907064719       17.8332331973      -21.3248662989  MEMB      125             0.0000000000
     15354       125  DOPC      H13B           -4.9487333612       18.5657073544      -20.4094076018  MEMB      125             0.0000000000
     15355       125  DOPC      H13C           -5.6460489003       16.9505875247      -19.9500349510  MEMB      125             0.0000000000
     15356       125  DOPC      C14            -8.0966575242       17.8920320601      -19.5904391423  MEMB      125             0.0000000000
     15357       125  DOPC      H14A           -7.9002581300       16.8301294062      -19.5766484280  MEMB      125             0.0000000000
     15358       125  DOPC      H14B           -8.8591793169       18.1535000813      -18.8716937166  MEMB      125             0.0000000000
     15359       125  DOPC      H14C           -8.3728435097       18.1322625576      -20.6065152169  MEMB      125             0.0000000000
     15360       125  DOPC      C15            -6.1932231578       18.3014715715      -17.9637448586  MEMB      125             0.0000000000
     15361       125  DOPC      H15A           -5.2154024606       18.7267574060      -17.7922848093  MEMB      125             0.0000000000
     15362       125  DOPC      H15B           -6.1180240732       17.2502834241      -17.7276334019  MEMB      125             0.0000000000
     15363       125  DOPC      H15C           -6.8461483069       18.7376525817      -17.2222364977  MEMB      125             0.0000000000
     15364       125  DOPC      C11            -7.5886121542       20.8533852168      -18.4888615499  MEMB      125             0.0000000000
     15365       125  DOPC      H11A           -6.9377225844       20.8697764990      -17.5886420634  MEMB      125             0.0000000000
     15366       125  DOPC      H11B           -7.7386265491       21.9371249403      -18.6820579347  MEMB      125             0.0000000000
     15367       125  DOPC      P             -10.2707536253       20.9064679042      -18.8004415397  MEMB      125             0.0000000000
     15368       125  DOPC      O13           -10.3210399178       20.7428071809      -20.2738533818  MEMB      125             0.0000000000
     15369       125  DOPC      O14           -10.1910139666       22.2646820643      -18.2281466567  MEMB      125             0.0000000000
     15370       125  DOPC      O12            -8.8659442411       20.2607251044      -18.1811516641  MEMB      125             0.0000000000
     15371       125  DOPC      O11           -11.4407487144       20.1720136823      -18.1043711489  MEMB      125             0.0000000000
     15372       125  DOPC      C1            -11.2113949342       19.0031621168      -17.3874581943  MEMB      125             0.0000000000
     15373       125  DOPC      HA            -10.2408161317       18.5282282227      -17.6457907260  MEMB      125             0.0000000000
     15374       125  DOPC      HB            -12.0069528278       18.2628960372      -17.6185750495  MEMB      125             0.0000000000
     15375       125  DOPC      C2            -11.3463354464       19.2737001165      -15.8534505189  MEMB      125             0.0000000000
     15376       125  DOPC      HS            -12.0965557382       20.0846362394      -15.7356662609  MEMB      125             0.0000000000
     15377       125  DOPC      O21           -10.0449130342       19.7338214501      -15.4493913636  MEMB      125             0.0000000000
     15378       125  DOPC      C21           -10.0244739740       20.2899424635      -14.2703522749  MEMB      125             0.0000000000
     15379       125  DOPC      O22           -10.9093642369       20.3870129284      -13.4306804430  MEMB      125             0.0000000000
     15380       125  DOPC      C22            -8.5977963289       20.8402069554      -14.1046376253  MEMB      125             0.0000000000
     15381       125  DOPC      H2R            -8.5268210980       21.8204600461      -14.6226985095  MEMB      125             0.0000000000
     15382       125  DOPC      H2S            -7.8967202907       20.0378087469      -14.4192334421  MEMB      125             0.0000000000
     15383       125  DOPC      C3            -11.7636457986       17.9517938445      -15.0632433344  MEMB      125             0.0000000000
     15384       125  DOPC      HX            -12.6241672475       17.3882794434      -15.4830949099  MEMB      125             0.0000000000
     15385       125  DOPC      HY            -11.9031940249       18.0978933796      -13.9707678693  MEMB      125             0.0000000000
     15386       125  DOPC      O31           -10.5968293735       17.0975187916      -15.2729868984  MEMB      125             0.0000000000
     15387       125  DOPC      C31           -10.5057669105       16.0817721913      -14.5093889588  MEMB      125             0.0000000000
     15388       125  DOPC      O32           -11.3374380528       15.8532448356      -13.6022867828  MEMB      125             0.0000000000
     15389       125  DOPC      C32            -9.5204142097       15.0904034355      -15.0467016820  MEMB      125             0.0000000000
     15390       125  DOPC      H2X           -10.0999842071       14.3292904676      -15.6116148967  MEMB      125             0.0000000000
     15391       125  DOPC      H2Y            -8.9952198667       15.6614589054      -15.8419294728  MEMB      125             0.0000000000
     15392       125  DOPC      C23            -8.3772545864       21.2237646790      -12.6738254562  MEMB      125             0.0000000000
     15393       125  DOPC      H3R            -7.3489012195       20.8292801072      -12.5282496917  MEMB      125             0.0000000000
     15394       125  DOPC      H3S            -9.0269250327       20.6364167438      -11.9902523117  MEMB      125             0.0000000000
     15395       125  DOPC      C24            -8.3846781999       22.7220140573      -12.3321274046  MEMB      125             0.0000000000
     15396       125  DOPC      H4R            -9.3745502886       23.1763382185      -12.5513621290  MEMB      125             0.0000000000
     15397       125  DOPC      H4S            -7.6107008325       23.1740770164      -12.9885715934  MEMB      125             0.0000000000
     15398       125  DOPC      C25            -7.9488516866       22.9097889396      -10.8586529305  MEMB      125             0.0000000000
     15399       125  DOPC      H5R            -7.7426357343       23.9700576248      -10.5986013793  MEMB      125             0.0000000000
     15400       125  DOPC      H5S            -7.0434176509       22.3008139574      -10.6497037041  MEMB      125             0.0000000000
     15401       125  DOPC      C26            -8.8999051370       22.2929216477       -9.7565711718  MEMB      125             0.0000000000
     15402       125  DOPC      H6R            -8.3578788369       22.3880499254       -8.7914391721  MEMB      125             0.0000000000
     15403       125  DOPC      H6S            -9.0452489811       21.2029091651       -9.9149029204  MEMB      125             0.0000000000
     15404       125  DOPC      C27           -10.3256461559       22.9581068507       -9.7349798665  MEMB      125             0.0000000000
     15405       125  DOPC      H7R           -10.4628468219       23.7233500021      -10.5286422718  MEMB      125             0.0000000000
     15406       125  DOPC      H7S           -10.2827599924       23.5688156316       -8.8078786626  MEMB      125             0.0000000000
     15407       125  DOPC      C28           -11.5036915896       21.9689970382       -9.5615714448  MEMB      125             0.0000000000
     15408       125  DOPC      H8R           -11.5046240386       21.2719527058      -10.4267015794  MEMB      125             0.0000000000
     15409       125  DOPC      H8S           -12.3860412991       22.5936606822       -9.8176486157  MEMB      125             0.0000000000
     15410       125  DOPC      C29           -11.6713386315       21.2474866237       -8.2243455219  MEMB      125             0.0000000000
     15411       125  DOPC      H9R           -11.6415266295       21.8563542549       -7.3087080965  MEMB      125             0.0000000000
     15412       125  DOPC      C210          -11.6858249639       19.9635612835       -7.9704855363  MEMB      125             0.0000000000
     15413       125  DOPC      H10R          -11.8700995498       19.6388095414       -6.9357979752  MEMB      125             0.0000000000
     15414       125  DOPC      C211          -11.6459815164       18.8253693476       -8.9601102648  MEMB      125             0.0000000000
     15415       125  DOPC      H11R          -11.6418358484       19.3254562930       -9.9521871385  MEMB      125             0.0000000000
     15416       125  DOPC      H11S          -12.4992565133       18.1146144842       -8.9273980964  MEMB      125             0.0000000000
     15417       125  DOPC      C212          -10.2516062076       18.1373031970       -8.9859128807  MEMB      125             0.0000000000
     15418       125  DOPC      H12R           -9.3921487288       18.8324905622       -8.8746998330  MEMB      125             0.0000000000
     15419       125  DOPC      H12S          -10.1704193338       17.5741830959       -9.9401805441  MEMB      125             0.0000000000
     15420       125  DOPC      C213          -10.1319217189       17.1387215870       -7.8348932577  MEMB      125             0.0000000000
     15421       125  DOPC      H13R          -10.2959060047       17.7133998479       -6.8983167996  MEMB      125             0.0000000000
     15422       125  DOPC      H13S           -9.0932861441       16.7683785567       -7.6992347266  MEMB      125             0.0000000000
     15423       125  DOPC      C214          -11.0597075636       15.8843870824       -7.7648337482  MEMB      125             0.0000000000
     15424       125  DOPC      H14R          -10.7004419980       15.2603448900       -8.6108959463  MEMB      125             0.0000000000
     15425       125  DOPC      H14S          -12.1167124796       16.2142244477       -7.8557671270  MEMB      125             0.0000000000
     15426       125  DOPC      C215          -10.9564407218       15.2206153867       -6.4275232785  MEMB      125             0.0000000000
     15427       125  DOPC      H15R           -9.8728795651       15.1852973696       -6.1846883418  MEMB      125             0.0000000000
     15428       125  DOPC      H15S          -11.2784941185       14.1843471829       -6.6657479040  MEMB      125             0.0000000000
     15429       125  DOPC      C216          -11.8751504002       15.9716689651       -5.4244302743  MEMB      125             0.0000000000
     15430       125  DOPC      H16R          -12.7492580666       15.2870143165       -5.4632171600  MEMB      125             0.0000000000
     15431       125  DOPC      H16S          -12.1032474311       16.9613063884       -5.8748860035  MEMB      125             0.0000000000
     15432       125  DOPC      C217          -11.1663998027       16.1523448258       -4.0540889322  MEMB      125             0.0000000000
     15433       125  DOPC      H17R          -11.9851078754       16.3207169431       -3.3221802101  MEMB      125             0.0000000000
     15434       125  DOPC      H17S          -10.4750743233       17.0131441151       -3.9299332228  MEMB      125             0.0000000000
     15435       125  DOPC      C218          -10.3177844007       15.0318708874       -3.5127510951  MEMB      125             0.0000000000
     15436       125  DOPC      H18R           -9.4397936668       14.9132825132       -4.1831170906  MEMB      125             0.0000000000
     15437       125  DOPC      H18S          -10.8045210237       14.0434452294       -3.6556602514  MEMB      125             0.0000000000
     15438       125  DOPC      H18T           -9.9477920353       15.1217515009       -2.4690330832  MEMB      125             0.0000000000
     15439       125  DOPC      C33            -8.8191773125       14.4075583237      -13.9015152705  MEMB      125             0.0000000000
     15440       125  DOPC      H3X            -8.2118550960       13.5825827479      -14.3315108294  MEMB      125             0.0000000000
     15441       125  DOPC      H3Y            -9.4404003051       13.8215240044      -13.1909050860  MEMB      125             0.0000000000
     15442       125  DOPC      C34            -7.8965911869       15.3576753143      -13.1902598738  MEMB      125             0.0000000000
     15443       125  DOPC      H4X            -7.3579929983       14.8313892951      -12.3734023783  MEMB      125             0.0000000000
     15444       125  DOPC      H4Y            -8.4376810109       16.1968873893      -12.7031604335  MEMB      125             0.0000000000
     15445       125  DOPC      C35            -6.8194179820       15.9127500426      -14.1218485645  MEMB      125             0.0000000000
     15446       125  DOPC      H5X            -7.4113481858       16.6179290049      -14.7436704937  MEMB      125             0.0000000000
     15447       125  DOPC      H5Y            -6.4356158554       15.0773165056      -14.7456019590  MEMB      125             0.0000000000
     15448       125  DOPC      C36            -5.7102228611       16.5614408309      -13.2511989841  MEMB      125             0.0000000000
     15449       125  DOPC      H6X            -5.5192958276       15.9068015119      -12.3740928336  MEMB      125             0.0000000000
     15450       125  DOPC      H6Y            -4.8111846167       16.4763873586      -13.8983599181  MEMB      125             0.0000000000
     15451       125  DOPC      C37            -5.8229781175       18.0654751004      -12.8887628602  MEMB      125             0.0000000000
     15452       125  DOPC      H7X            -5.7909102589       18.6452820708      -13.8359249215  MEMB      125             0.0000000000
     15453       125  DOPC      H7Y            -6.6847630395       18.2117678150      -12.2030176712  MEMB      125             0.0000000000
     15454       125  DOPC      C38            -4.6218562395       18.5762810753      -12.0338317254  MEMB      125             0.0000000000
     15455       125  DOPC      H8X            -3.7268198868       18.3771869560      -12.6612012555  MEMB      125             0.0000000000
     15456       125  DOPC      H8Y            -4.5804948666       18.0123070250      -11.0775138284  MEMB      125             0.0000000000
     15457       125  DOPC      C39            -4.6009014826       20.0515205572      -11.9488054381  MEMB      125             0.0000000000
     15458       125  DOPC      H9X            -4.5442369366       20.7148883418      -12.8244376872  MEMB      125             0.0000000000
     15459       125  DOPC      C310           -4.6000528173       20.7424286649      -10.7644128853  MEMB      125             0.0000000000
     15460       125  DOPC      H10X           -4.7307319309       21.8346176673      -10.7575969277  MEMB      125             0.0000000000
     15461       125  DOPC      C311           -4.6542277976       20.1657618789       -9.3676909226  MEMB      125             0.0000000000
     15462       125  DOPC      H11X           -3.6664644742       20.3784964512       -8.9057509801  MEMB      125             0.0000000000
     15463       125  DOPC      H11Y           -4.7887032909       19.0653894387       -9.2940862252  MEMB      125             0.0000000000
     15464       125  DOPC      C312           -5.7461013159       20.7619687447       -8.4116960856  MEMB      125             0.0000000000
     15465       125  DOPC      H12X           -6.6860960144       20.5639247741       -8.9698268412  MEMB      125             0.0000000000
     15466       125  DOPC      H12Y           -5.6411924434       21.8663243714       -8.3507567840  MEMB      125             0.0000000000
     15467       125  DOPC      C313           -5.7772437706       20.0041921793       -7.1420526237  MEMB      125             0.0000000000
     15468       125  DOPC      H13X           -6.2210742453       19.0188913974       -7.3999625809  MEMB      125             0.0000000000
     15469       125  DOPC      H13Y           -4.7270423298       19.8250552925       -6.8269204480  MEMB      125             0.0000000000
     15470       125  DOPC      C314           -6.6113994201       20.6770191363       -6.0620527442  MEMB      125             0.0000000000
     15471       125  DOPC      H14X           -6.2342613423       20.6037639958       -5.0195938547  MEMB      125             0.0000000000
     15472       125  DOPC      H14Y           -6.7220664337       21.7529896532       -6.3157482973  MEMB      125             0.0000000000
     15473       125  DOPC      C315           -8.0589315283       20.1467468979       -6.0639744258  MEMB      125             0.0000000000
     15474       125  DOPC      H15X           -8.0912814474       19.0384455359       -5.9936709978  MEMB      125             0.0000000000
     15475       125  DOPC      H15Y           -8.5199074631       20.3266953361       -7.0586810060  MEMB      125             0.0000000000
     15476       125  DOPC      C316           -8.8667166515       20.7416814380       -4.9088620185  MEMB      125             0.0000000000
     15477       125  DOPC      H16X           -8.9223085861       21.8500241819       -4.8558760994  MEMB      125             0.0000000000
     15478       125  DOPC      H16Y           -9.9287689861       20.4382300686       -5.0283733647  MEMB      125             0.0000000000
     15479       125  DOPC      C317           -8.4036848159       20.1915873745       -3.5638525189  MEMB      125             0.0000000000
     15480       125  DOPC      H17X           -8.2624180203       19.0928319406       -3.6481180811  MEMB      125             0.0000000000
     15481       125  DOPC      H17Y           -7.3902564120       20.6468714785       -3.5632160966  MEMB      125             0.0000000000
     15482       125  DOPC      C318           -9.0087008891       20.7319394767       -2.2740439693  MEMB      125             0.0000000000
     15483       125  DOPC      H18X           -8.1710316859       20.8744703046       -1.5582810077  MEMB      125             0.0000000000
     15484       125  DOPC      H18Y           -9.3913707103       21.7536918512       -2.4835804319  MEMB      125             0.0000000000
     15485       125  DOPC      H18Z           -9.7820060776       20.0591780265       -1.8454248689  MEMB      125             0.0000000000
     15486       126  DOPE      N               2.9385449420       21.6897641375      -16.5238721361  MEMB      126             0.0000000000
     15487       126  DOPE      HN1             2.5991209994       20.7322224369      -16.7463699271  MEMB      126             0.0000000000
     15488       126  DOPE      HN2             3.2272376454       21.7673019628      -15.5277575181  MEMB      126             0.0000000000
     15489       126  DOPE      HN3             2.1147120273       22.3228826156      -16.5692637689  MEMB      126             0.0000000000
     15490       126  DOPE      C12             3.9319055526       22.2148635495      -17.5085598985  MEMB      126             0.0000000000
     15491       126  DOPE      H12A            4.7353972800       21.4513849718      -17.5848664830  MEMB      126             0.0000000000
     15492       126  DOPE      H12B            4.2505812693       23.1744291805      -17.0481244321  MEMB      126             0.0000000000
     15493       126  DOPE      C11             3.4182123915       22.3769950630      -18.8867787360  MEMB      126             0.0000000000
     15494       126  DOPE      H11A            4.1483795040       22.5757882072      -19.7002025641  MEMB      126             0.0000000000
     15495       126  DOPE      H11B            2.7590534417       23.2687500860      -18.9546281501  MEMB      126             0.0000000000
     15496       126  DOPE      P               1.2956364862       21.1924684136      -19.8728478536  MEMB      126             0.0000000000
     15497       126  DOPE      O13             0.7662126121       19.8471467263      -20.2144076717  MEMB      126             0.0000000000
     15498       126  DOPE      O14             1.2847800091       22.2356303360      -20.9617948407  MEMB      126             0.0000000000
     15499       126  DOPE      O11             0.4766063246       21.8374681318      -18.6792790729  MEMB      126             0.0000000000
     15500       126  DOPE      O12             2.7777211181       21.1726668406      -19.3524597824  MEMB      126             0.0000000000
     15501       126  DOPE      C1             -0.1658514673       20.9310986846      -17.7426772708  MEMB      126             0.0000000000
     15502       126  DOPE      HA              0.5009687288       20.4681111949      -16.9841824572  MEMB      126             0.0000000000
     15503       126  DOPE      HB             -0.8106399135       20.2074304068      -18.2856993342  MEMB      126             0.0000000000
     15504       126  DOPE      C2             -1.1758564092       21.8299701592      -16.8849638905  MEMB      126             0.0000000000
     15505       126  DOPE      HS             -1.8286126638       22.2680279443      -17.6700344248  MEMB      126             0.0000000000
     15506       126  DOPE      O21            -0.4024168428       22.8741444867      -16.3443202161  MEMB      126             0.0000000000
     15507       126  DOPE      C21            -0.9943408919       24.0830535755      -16.0470862718  MEMB      126             0.0000000000
     15508       126  DOPE      O22            -2.1344919106       24.3310929761      -16.1092748568  MEMB      126             0.0000000000
     15509       126  DOPE      C22             0.0471358330       25.0823096075      -15.4534029731  MEMB      126             0.0000000000
     15510       126  DOPE      H2R            -0.5033105230       25.7936503051      -14.8012343186  MEMB      126             0.0000000000
     15511       126  DOPE      H2S             0.4961739471       25.6679218476      -16.2839114902  MEMB      126             0.0000000000
     15512       126  DOPE      C3             -2.0119144157       21.1581189042      -15.7510083586  MEMB      126             0.0000000000
     15513       126  DOPE      HX             -2.7205067720       20.4249721110      -16.1922720287  MEMB      126             0.0000000000
     15514       126  DOPE      HY             -2.5824944984       22.0050969534      -15.3135298458  MEMB      126             0.0000000000
     15515       126  DOPE      O31            -1.1302907968       20.5049412852      -14.7838124337  MEMB      126             0.0000000000
     15516       126  DOPE      C31            -1.5832976398       19.5587550928      -14.0188714141  MEMB      126             0.0000000000
     15517       126  DOPE      O32            -2.7435023062       19.1920789321      -13.8426515386  MEMB      126             0.0000000000
     15518       126  DOPE      C32            -0.2686482929       18.9304999210      -13.5134550863  MEMB      126             0.0000000000
     15519       126  DOPE      H2X             0.3624700925       18.5661235855      -14.3520493025  MEMB      126             0.0000000000
     15520       126  DOPE      H2Y             0.3669007390       19.6554419810      -12.9613162261  MEMB      126             0.0000000000
     15521       126  DOPE      C23             1.1804770382       24.5625557039      -14.6352273926  MEMB      126             0.0000000000
     15522       126  DOPE      H3R             1.9716971892       25.3388730228      -14.5602416141  MEMB      126             0.0000000000
     15523       126  DOPE      H3S             1.6456066925       23.6037873019      -14.9494545893  MEMB      126             0.0000000000
     15524       126  DOPE      C24             0.7911079647       24.4290006052      -13.1492800924  MEMB      126             0.0000000000
     15525       126  DOPE      H4R             0.5264941136       25.3496051481      -12.5864407008  MEMB      126             0.0000000000
     15526       126  DOPE      H4S             1.6580769856       23.9952245221      -12.6065794313  MEMB      126             0.0000000000
     15527       126  DOPE      C25            -0.3223234729       23.3959260894      -12.7273443663  MEMB      126             0.0000000000
     15528       126  DOPE      H5R            -0.1579551254       22.3957840418      -13.1823388708  MEMB      126             0.0000000000
     15529       126  DOPE      H5S            -1.3396074088       23.6910615082      -13.0625301373  MEMB      126             0.0000000000
     15530       126  DOPE      C26            -0.4103810967       23.0029318475      -11.2519280846  MEMB      126             0.0000000000
     15531       126  DOPE      H6R             0.2893223621       22.2007093966      -10.9338476131  MEMB      126             0.0000000000
     15532       126  DOPE      H6S            -1.4370556193       22.5804745727      -11.2096162055  MEMB      126             0.0000000000
     15533       126  DOPE      C27            -0.2815218473       24.1443399262      -10.2626554253  MEMB      126             0.0000000000
     15534       126  DOPE      H7R            -0.5285398268       25.0826776345      -10.8037892564  MEMB      126             0.0000000000
     15535       126  DOPE      H7S             0.8070443360       24.2794385943      -10.0863246112  MEMB      126             0.0000000000
     15536       126  DOPE      C28            -1.1127807889       24.1689492103       -8.9624808598  MEMB      126             0.0000000000
     15537       126  DOPE      H8R            -2.1622537952       23.8897496184       -9.1969479947  MEMB      126             0.0000000000
     15538       126  DOPE      H8S            -1.1793389585       25.2374355796       -8.6654486798  MEMB      126             0.0000000000
     15539       126  DOPE      C29            -0.6466546287       23.2446008787       -7.9029923376  MEMB      126             0.0000000000
     15540       126  DOPE      H9R            -0.8775304590       22.1726787197       -7.9906235327  MEMB      126             0.0000000000
     15541       126  DOPE      C210            0.2502332836       23.5581522123       -6.9376355140  MEMB      126             0.0000000000
     15542       126  DOPE      H10R            0.4589538305       22.7799559386       -6.1887386989  MEMB      126             0.0000000000
     15543       126  DOPE      C211            0.8986666747       24.8377029979       -6.7869430500  MEMB      126             0.0000000000
     15544       126  DOPE      H11R            0.7246144281       25.3567284055       -5.8201763916  MEMB      126             0.0000000000
     15545       126  DOPE      H11S            0.4559126075       25.5415957411       -7.5237097316  MEMB      126             0.0000000000
     15546       126  DOPE      C212            2.3551265477       24.8564030805       -7.0413286677  MEMB      126             0.0000000000
     15547       126  DOPE      H12R            2.6405942325       25.9090036285       -6.8295227928  MEMB      126             0.0000000000
     15548       126  DOPE      H12S            2.5022434681       24.7711093526       -8.1392363429  MEMB      126             0.0000000000
     15549       126  DOPE      C213            3.2595790196       24.0043468451       -6.1409975606  MEMB      126             0.0000000000
     15550       126  DOPE      H13R            4.3416788565       24.1887514023       -6.3123923999  MEMB      126             0.0000000000
     15551       126  DOPE      H13S            2.9742885040       22.9472078235       -6.3291134880  MEMB      126             0.0000000000
     15552       126  DOPE      C214            2.9441077221       24.2941043109       -4.6397131049  MEMB      126             0.0000000000
     15553       126  DOPE      H14R            1.9276976228       24.0044058030       -4.2972128742  MEMB      126             0.0000000000
     15554       126  DOPE      H14S            3.1546002249       25.3570177309       -4.3942956527  MEMB      126             0.0000000000
     15555       126  DOPE      C215            3.8864728427       23.4145362754       -3.6595530791  MEMB      126             0.0000000000
     15556       126  DOPE      H15R            4.9258097167       23.6547608372       -3.9700247830  MEMB      126             0.0000000000
     15557       126  DOPE      H15S            3.8371406788       22.3148216388       -3.8096031066  MEMB      126             0.0000000000
     15558       126  DOPE      C216            3.7560049390       23.7628605955       -2.1932526360  MEMB      126             0.0000000000
     15559       126  DOPE      H16R            2.6829272282       23.6880065911       -1.9153631329  MEMB      126             0.0000000000
     15560       126  DOPE      H16S            3.9311419957       24.8334122131       -1.9533178871  MEMB      126             0.0000000000
     15561       126  DOPE      C217            4.6274862570       22.9431247450       -1.2181987477  MEMB      126             0.0000000000
     15562       126  DOPE      H17R            4.8394346955       23.4678843359       -0.2621514393  MEMB      126             0.0000000000
     15563       126  DOPE      H17S            5.6461328147       22.8430817507       -1.6502537188  MEMB      126             0.0000000000
     15564       126  DOPE      C218            4.1699207219       21.5597000848       -0.8340005466  MEMB      126             0.0000000000
     15565       126  DOPE      H18R            4.9405766977       21.0903220624       -0.1858528275  MEMB      126             0.0000000000
     15566       126  DOPE      H18S            4.1470839946       20.8729176053       -1.7070007878  MEMB      126             0.0000000000
     15567       126  DOPE      H18T            3.1169222419       21.7161548563       -0.5161368512  MEMB      126             0.0000000000
     15568       126  DOPE      C33            -0.6663128857       17.7526325322      -12.6181233427  MEMB      126             0.0000000000
     15569       126  DOPE      H3X             0.3430053898       17.2921028764      -12.5588769530  MEMB      126             0.0000000000
     15570       126  DOPE      H3Y            -1.2507099582       17.0721131862      -13.2736343069  MEMB      126             0.0000000000
     15571       126  DOPE      C34            -1.3813916112       17.9811656680      -11.2751512199  MEMB      126             0.0000000000
     15572       126  DOPE      H4X            -1.3020148109       19.0188743173      -10.8863314178  MEMB      126             0.0000000000
     15573       126  DOPE      H4Y            -2.4734629883       17.7975859630      -11.3645925570  MEMB      126             0.0000000000
     15574       126  DOPE      C35            -0.6366196689       17.3659778053      -10.0781447414  MEMB      126             0.0000000000
     15575       126  DOPE      H5X            -0.6253446762       16.2611765610      -10.1947962686  MEMB      126             0.0000000000
     15576       126  DOPE      H5Y            -1.1509826678       17.6598317748       -9.1382497388  MEMB      126             0.0000000000
     15577       126  DOPE      C36             0.8176300519       17.7372040174       -9.9218518855  MEMB      126             0.0000000000
     15578       126  DOPE      H6X             0.9188613224       18.8339835749       -9.7764292662  MEMB      126             0.0000000000
     15579       126  DOPE      H6Y             1.3033146810       17.4501593406      -10.8789504903  MEMB      126             0.0000000000
     15580       126  DOPE      C37             1.3872454668       17.0031355608       -8.6963080634  MEMB      126             0.0000000000
     15581       126  DOPE      H7X             0.7120057495       17.1829519586       -7.8325735510  MEMB      126             0.0000000000
     15582       126  DOPE      H7Y             1.3358105524       15.9336104612       -8.9926043798  MEMB      126             0.0000000000
     15583       126  DOPE      C38             2.7771351770       17.4904130970       -8.3722404336  MEMB      126             0.0000000000
     15584       126  DOPE      H8X             3.4626917792       17.5273465508       -9.2457217727  MEMB      126             0.0000000000
     15585       126  DOPE      H8Y             3.3242034161       16.8106508424       -7.6845194338  MEMB      126             0.0000000000
     15586       126  DOPE      C39             2.7637356843       18.8979144784       -7.8074018233  MEMB      126             0.0000000000
     15587       126  DOPE      H9X             2.5273366399       19.6543771911       -8.5702118359  MEMB      126             0.0000000000
     15588       126  DOPE      C310            3.1147625027       19.3263335406       -6.5498590190  MEMB      126             0.0000000000
     15589       126  DOPE      H10X            3.0054298852       20.3659768308       -6.2075308074  MEMB      126             0.0000000000
     15590       126  DOPE      C311            3.5814655331       18.5048492469       -5.3671369581  MEMB      126             0.0000000000
     15591       126  DOPE      H11X            3.4381699942       17.4185146613       -5.5506149843  MEMB      126             0.0000000000
     15592       126  DOPE      H11Y            4.6796383231       18.6730767524       -5.3732068482  MEMB      126             0.0000000000
     15593       126  DOPE      C312            2.7693488425       18.9961124603       -4.1491251666  MEMB      126             0.0000000000
     15594       126  DOPE      H12X            2.9623746177       20.0860361623       -4.0535819915  MEMB      126             0.0000000000
     15595       126  DOPE      H12Y            3.3145081617       18.4992953353       -3.3182855981  MEMB      126             0.0000000000
     15596       126  DOPE      C313            1.2569495999       18.8852965006       -4.0247621301  MEMB      126             0.0000000000
     15597       126  DOPE      H13X            0.7249768447       19.3305622072       -4.8925554860  MEMB      126             0.0000000000
     15598       126  DOPE      H13Y            1.0145521849       17.8071232639       -4.1392483014  MEMB      126             0.0000000000
     15599       126  DOPE      C314            0.6387996701       19.3752918759       -2.7568612339  MEMB      126             0.0000000000
     15600       126  DOPE      H14X            1.2136199973       19.0206311507       -1.8747508385  MEMB      126             0.0000000000
     15601       126  DOPE      H14Y           -0.3869497045       18.9500438828       -2.7932353328  MEMB      126             0.0000000000
     15602       126  DOPE      C315            0.3578468501       20.8751141068       -2.6603478354  MEMB      126             0.0000000000
     15603       126  DOPE      H15X           -0.0864060920       21.2436603492       -3.6096287153  MEMB      126             0.0000000000
     15604       126  DOPE      H15Y            1.2904860789       21.4548528416       -2.4918014368  MEMB      126             0.0000000000
     15605       126  DOPE      C316           -0.5006966500       21.2807568629       -1.5064453764  MEMB      126             0.0000000000
     15606       126  DOPE      H16X           -0.0610992102       20.9486872079       -0.5416633034  MEMB      126             0.0000000000
     15607       126  DOPE      H16Y           -1.4451508124       20.7114700408       -1.6415009463  MEMB      126             0.0000000000
     15608       126  DOPE      C317           -0.8581317664       22.7409690402       -1.6513634943  MEMB      126             0.0000000000
     15609       126  DOPE      H17X           -0.0245283854       23.4491824907       -1.4567868566  MEMB      126             0.0000000000
     15610       126  DOPE      H17Y           -1.3417484299       22.9720187176       -2.6245301867  MEMB      126             0.0000000000
     15611       126  DOPE      C318           -1.9074243845       23.2196732360       -0.6204921562  MEMB      126             0.0000000000
     15612       126  DOPE      H18X           -2.1827184903       24.2828209479       -0.7885712947  MEMB      126             0.0000000000
     15613       126  DOPE      H18Y           -2.8179227720       22.5831423578       -0.6324195539  MEMB      126             0.0000000000
     15614       126  DOPE      H18Z           -1.3924556289       23.1647388207        0.3624180198  MEMB      126             0.0000000000
     15615       127  23SM      N              -1.0372851140      -21.7708695810      -28.0172903248  MEMB      127             0.0000000000
     15616       127  23SM      C15            -2.5114220391      -21.6327782056      -27.6276730177  MEMB      127             0.0000000000
     15617       127  23SM      H15A           -3.0051602800      -22.5354018365      -27.2992021239  MEMB      127             0.0000000000
     15618       127  23SM      H15B           -3.0280783054      -21.1326727715      -28.4335022855  MEMB      127             0.0000000000
     15619       127  23SM      H15C           -2.5669250299      -20.8795446128      -26.8556894305  MEMB      127             0.0000000000
     15620       127  23SM      C14            -0.8391257485      -22.5904430981      -29.2642683115  MEMB      127             0.0000000000
     15621       127  23SM      H14A           -0.5773825922      -23.6314885779      -29.1454626575  MEMB      127             0.0000000000
     15622       127  23SM      H14B            0.0789497518      -22.1839197175      -29.6621073373  MEMB      127             0.0000000000
     15623       127  23SM      H14C           -1.6859820319      -22.4615327477      -29.9220041310  MEMB      127             0.0000000000
     15624       127  23SM      C13            -0.6952071776      -20.3365304444      -28.3434174010  MEMB      127             0.0000000000
     15625       127  23SM      H13A           -1.0642821275      -19.5824271865      -27.6640707945  MEMB      127             0.0000000000
     15626       127  23SM      H13B           -1.1124051391      -20.2098363691      -29.3314935234  MEMB      127             0.0000000000
     15627       127  23SM      H13C            0.3714404408      -20.1976963744      -28.4403094432  MEMB      127             0.0000000000
     15628       127  23SM      C12            -0.1205614910      -22.2746995985      -26.8920801997  MEMB      127             0.0000000000
     15629       127  23SM      H12A            0.9153188808      -22.1829986663      -27.1835297260  MEMB      127             0.0000000000
     15630       127  23SM      H12B           -0.4175697371      -23.2847825730      -26.6514176334  MEMB      127             0.0000000000
     15631       127  23SM      C11            -0.0883617436      -21.4494603643      -25.5609268202  MEMB      127             0.0000000000
     15632       127  23SM      H11A            0.2894703683      -20.4220313161      -25.7505408553  MEMB      127             0.0000000000
     15633       127  23SM      H11B            0.5503831908      -21.9755690759      -24.8196201042  MEMB      127             0.0000000000
     15634       127  23SM      P              -1.9701755549      -22.3120825094      -24.0961716481  MEMB      127             0.0000000000
     15635       127  23SM      O13            -3.4651563912      -22.4449202270      -24.3921973903  MEMB      127             0.0000000000
     15636       127  23SM      O14            -1.2227769688      -23.5617124876      -24.1824627548  MEMB      127             0.0000000000
     15637       127  23SM      O11            -1.7489351512      -21.7406705070      -22.5623255895  MEMB      127             0.0000000000
     15638       127  23SM      O12            -1.3670646367      -21.2037042774      -25.0611865754  MEMB      127             0.0000000000
     15639       127  23SM      C1S            -1.9232881122      -20.3510258217      -22.3854638046  MEMB      127             0.0000000000
     15640       127  23SM      H1S            -3.0082208693      -20.1167247668      -22.3370382189  MEMB      127             0.0000000000
     15641       127  23SM      H1T            -1.3434464955      -19.7011586089      -23.0752299619  MEMB      127             0.0000000000
     15642       127  23SM      NF             -0.1349303243      -20.4031602235      -20.6649330923  MEMB      127             0.0000000000
     15643       127  23SM      HNF            -0.0254296017      -21.2386727263      -20.1320750068  MEMB      127             0.0000000000
     15644       127  23SM      C2S            -1.5020996178      -20.0259397177      -20.9246661840  MEMB      127             0.0000000000
     15645       127  23SM      H2S            -1.6636132186      -18.9287414874      -20.8584035569  MEMB      127             0.0000000000
     15646       127  23SM      C3S            -2.4291216485      -20.7715326325      -19.9356935540  MEMB      127             0.0000000000
     15647       127  23SM      H3S            -2.5374380814      -21.8517412292      -20.1717819660  MEMB      127             0.0000000000
     15648       127  23SM      O3             -3.7093656462      -20.2712584823      -20.1032435717  MEMB      127             0.0000000000
     15649       127  23SM      HO3            -3.6792902759      -19.6290354296      -20.8161563759  MEMB      127             0.0000000000
     15650       127  23SM      C4S            -2.1563519663      -20.3773429909      -18.4755642158  MEMB      127             0.0000000000
     15651       127  23SM      H4S            -2.5952181314      -19.4042278810      -18.2101525447  MEMB      127             0.0000000000
     15652       127  23SM      C5S            -1.4089423266      -20.9426174741      -17.5310255778  MEMB      127             0.0000000000
     15653       127  23SM      H5S            -0.9606397101      -21.9255214899      -17.7382084481  MEMB      127             0.0000000000
     15654       127  23SM      C6S            -1.1148582149      -20.5129353564      -16.1003743565  MEMB      127             0.0000000000
     15655       127  23SM      H6S            -1.4976643375      -19.5382205852      -15.7292792189  MEMB      127             0.0000000000
     15656       127  23SM      H6T            -0.0191189898      -20.3577612550      -16.1983416700  MEMB      127             0.0000000000
     15657       127  23SM      C7S            -1.3088421405      -21.5359944202      -15.0412937949  MEMB      127             0.0000000000
     15658       127  23SM      H7S            -0.8810864234      -22.4680871282      -15.4685522309  MEMB      127             0.0000000000
     15659       127  23SM      H7T            -2.4063809643      -21.6906602626      -14.9650828025  MEMB      127             0.0000000000
     15660       127  23SM      C8S            -0.5985850052      -21.2752386927      -13.7165856334  MEMB      127             0.0000000000
     15661       127  23SM      H8S             0.3783904672      -20.8679137189      -14.0541154215  MEMB      127             0.0000000000
     15662       127  23SM      H8T            -0.5304346413      -22.2147150022      -13.1274665126  MEMB      127             0.0000000000
     15663       127  23SM      C9S            -1.3196461349      -20.2119655795      -12.9020663019  MEMB      127             0.0000000000
     15664       127  23SM      H9S            -2.2958403823      -20.5964515028      -12.5366398660  MEMB      127             0.0000000000
     15665       127  23SM      H9T            -1.5292070387      -19.2330389009      -13.3838422191  MEMB      127             0.0000000000
     15666       127  23SM      C10S           -0.7382054741      -19.8640303425      -11.5427390108  MEMB      127             0.0000000000
     15667       127  23SM      H10S            0.3037239337      -19.5249030438      -11.7263051133  MEMB      127             0.0000000000
     15668       127  23SM      H10T           -0.6938371209      -20.8672382075      -11.0674217172  MEMB      127             0.0000000000
     15669       127  23SM      C11S           -1.5788969309      -18.9337391963      -10.6772792680  MEMB      127             0.0000000000
     15670       127  23SM      H11S           -2.5498564820      -19.3946004275      -10.3959160312  MEMB      127             0.0000000000
     15671       127  23SM      H11T           -1.8694348477      -17.9949518334      -11.1955333228  MEMB      127             0.0000000000
     15672       127  23SM      C12S           -1.0566252877      -18.7699700234       -9.2391057338  MEMB      127             0.0000000000
     15673       127  23SM      H12S            0.0100866094      -18.4696855346       -9.1598839034  MEMB      127             0.0000000000
     15674       127  23SM      H12T           -1.1868846105      -19.7789906634       -8.7927521963  MEMB      127             0.0000000000
     15675       127  23SM      C13S           -2.0338639268      -17.8881241844       -8.3135255714  MEMB      127             0.0000000000
     15676       127  23SM      H13S           -3.0745738813      -18.2756568164       -8.3461123434  MEMB      127             0.0000000000
     15677       127  23SM      H13T           -1.9868804180      -16.8893678882       -8.7978816174  MEMB      127             0.0000000000
     15678       127  23SM      C14S           -1.5421518658      -17.9188715483       -6.8998900345  MEMB      127             0.0000000000
     15679       127  23SM      H14S           -0.5460185304      -17.5125945027       -6.6224400889  MEMB      127             0.0000000000
     15680       127  23SM      H14T           -1.4929425951      -18.9822676308       -6.5819461803  MEMB      127             0.0000000000
     15681       127  23SM      C15S           -2.6666824393      -17.1852351211       -5.9831452981  MEMB      127             0.0000000000
     15682       127  23SM      H15S           -3.6879204034      -17.4059264803       -6.3608879027  MEMB      127             0.0000000000
     15683       127  23SM      H15T           -2.4770606173      -16.1024341724       -6.1441003836  MEMB      127             0.0000000000
     15684       127  23SM      C16S           -2.4294864742      -17.4973789852       -4.5462513726  MEMB      127             0.0000000000
     15685       127  23SM      H16S           -1.3452074670      -17.6850264207       -4.3931222952  MEMB      127             0.0000000000
     15686       127  23SM      H16T           -2.8833853720      -18.4969172314       -4.3753132091  MEMB      127             0.0000000000
     15687       127  23SM      C17S           -2.7278796261      -16.4340778636       -3.5220132738  MEMB      127             0.0000000000
     15688       127  23SM      H17S           -3.6705999689      -15.9248425868       -3.8157461851  MEMB      127             0.0000000000
     15689       127  23SM      H17T           -1.9604944790      -15.6461759039       -3.6790222193  MEMB      127             0.0000000000
     15690       127  23SM      C18S           -2.8015437744      -17.0074241775       -2.0562260821  MEMB      127             0.0000000000
     15691       127  23SM      H18S           -1.7902891257      -17.2078195963       -1.6420683792  MEMB      127             0.0000000000
     15692       127  23SM      H18T           -3.3501438183      -17.9703667647       -2.1343329916  MEMB      127             0.0000000000
     15693       127  23SM      H18U           -3.2722849177      -16.2364112895       -1.4094935954  MEMB      127             0.0000000000
     15694       127  23SM      C1F             0.8743771579      -19.9224602729      -21.3740297558  MEMB      127             0.0000000000
     15695       127  23SM      OF              0.8789036557      -18.9470051261      -22.0991664342  MEMB      127             0.0000000000
     15696       127  23SM      C2F             2.1235997898      -20.6911971986      -21.0401392457  MEMB      127             0.0000000000
     15697       127  23SM      H2F             2.0668896549      -21.0512456420      -19.9906301493  MEMB      127             0.0000000000
     15698       127  23SM      H2G             2.9849950434      -20.0152149023      -21.2282007724  MEMB      127             0.0000000000
     15699       127  23SM      C3F             2.2383544178      -21.9512739629      -21.8782064575  MEMB      127             0.0000000000
     15700       127  23SM      H3F             3.3195069826      -22.2062516625      -21.8578062288  MEMB      127             0.0000000000
     15701       127  23SM      H3G             1.9985827151      -21.6120207682      -22.9086132171  MEMB      127             0.0000000000
     15702       127  23SM      C4F             1.2819032010      -23.1641325547      -21.5051432042  MEMB      127             0.0000000000
     15703       127  23SM      H4F             1.5515963855      -23.9932183369      -22.1937673861  MEMB      127             0.0000000000
     15704       127  23SM      H4G             0.2066151106      -22.9079135010      -21.6166265500  MEMB      127             0.0000000000
     15705       127  23SM      C5F             1.3342556829      -23.6158738666      -20.0117448228  MEMB      127             0.0000000000
     15706       127  23SM      H5F             1.1345294173      -22.7787183297      -19.3091774170  MEMB      127             0.0000000000
     15707       127  23SM      H5G             2.3221561336      -24.0108825964      -19.6918359298  MEMB      127             0.0000000000
     15708       127  23SM      C6F             0.3288633661      -24.8011826370      -19.4867322318  MEMB      127             0.0000000000
     15709       127  23SM      H6F             0.5570402011      -24.7596085733      -18.4002109932  MEMB      127             0.0000000000
     15710       127  23SM      H6G             0.6427826571      -25.7878244508      -19.8896143227  MEMB      127             0.0000000000
     15711       127  23SM      C7F            -1.1485958079      -24.4866314178      -19.7911642713  MEMB      127             0.0000000000
     15712       127  23SM      H7F            -1.4019043044      -24.5135230150      -20.8725673347  MEMB      127             0.0000000000
     15713       127  23SM      H7G            -1.4280066208      -23.4567755400      -19.4818948869  MEMB      127             0.0000000000
     15714       127  23SM      C8F            -2.2548652669      -25.2850030908      -19.0075515246  MEMB      127             0.0000000000
     15715       127  23SM      H8F            -1.9488146351      -26.3482264250      -18.9065064093  MEMB      127             0.0000000000
     15716       127  23SM      H8G            -3.1276165681      -25.2396330878      -19.6935312396  MEMB      127             0.0000000000
     15717       127  23SM      C9F            -2.7601011383      -24.6083952085      -17.6538434468  MEMB      127             0.0000000000
     15718       127  23SM      H9F            -3.7995471496      -24.9873929606      -17.5526819693  MEMB      127             0.0000000000
     15719       127  23SM      H9G            -2.7830193390      -23.4976315169      -17.6543050330  MEMB      127             0.0000000000
     15720       127  23SM      C10F           -1.9893803951      -25.0103495796      -16.4124144640  MEMB      127             0.0000000000
     15721       127  23SM      H10F           -0.9671046792      -24.5765417486      -16.3794901630  MEMB      127             0.0000000000
     15722       127  23SM      H10G           -1.7765748707      -26.0964808424      -16.3157020250  MEMB      127             0.0000000000
     15723       127  23SM      C11F           -2.7356025595      -24.6338194825      -15.1470884403  MEMB      127             0.0000000000
     15724       127  23SM      H11F           -3.6377886726      -25.2667572579      -15.0064782204  MEMB      127             0.0000000000
     15725       127  23SM      H11G           -3.0375050337      -23.5653897222      -15.1066719202  MEMB      127             0.0000000000
     15726       127  23SM      C12F           -2.0299800948      -24.8328161550      -13.8258783684  MEMB      127             0.0000000000
     15727       127  23SM      H12F           -1.0668533945      -24.3074340804      -14.0010395681  MEMB      127             0.0000000000
     15728       127  23SM      H12G           -1.8539213229      -25.8803641560      -13.5003517054  MEMB      127             0.0000000000
     15729       127  23SM      C13F           -2.8141427256      -24.0833509047      -12.6824876629  MEMB      127             0.0000000000
     15730       127  23SM      H13F           -3.9047962277      -24.2780521308      -12.7654780585  MEMB      127             0.0000000000
     15731       127  23SM      H13G           -2.6790457188      -22.9862097745      -12.7936229786  MEMB      127             0.0000000000
     15732       127  23SM      C14F           -2.2101172606      -24.5427915166      -11.2756929039  MEMB      127             0.0000000000
     15733       127  23SM      H14F           -1.1706594469      -24.1739455449      -11.1422711168  MEMB      127             0.0000000000
     15734       127  23SM      H14G           -2.0797713883      -25.6442372737      -11.3400990423  MEMB      127             0.0000000000
     15735       127  23SM      C15F           -3.0115189236      -24.0926886321      -10.0470722925  MEMB      127             0.0000000000
     15736       127  23SM      H15F           -2.4328681008      -24.5757053619       -9.2308744739  MEMB      127             0.0000000000
     15737       127  23SM      H15G           -4.0035716741      -24.5706806464       -9.8998449227  MEMB      127             0.0000000000
     15738       127  23SM      C16F           -3.0572430367      -22.6178290352       -9.8302050475  MEMB      127             0.0000000000
     15739       127  23SM      H16F           -3.6656914996      -22.1563895522      -10.6371648247  MEMB      127             0.0000000000
     15740       127  23SM      H16G           -1.9832406804      -22.3410698672       -9.8953530770  MEMB      127             0.0000000000
     15741       127  23SM      C17F           -3.4684311433      -22.1154963249       -8.4167201031  MEMB      127             0.0000000000
     15742       127  23SM      H17F           -4.4272295018      -22.6694538775       -8.3264009530  MEMB      127             0.0000000000
     15743       127  23SM      H17G           -3.8122803501      -21.0597781647       -8.3773807632  MEMB      127             0.0000000000
     15744       127  23SM      C18F           -2.4818637064      -22.4331455041       -7.3162993065  MEMB      127             0.0000000000
     15745       127  23SM      H18F           -1.5138619612      -22.0326150852       -7.6862572716  MEMB      127             0.0000000000
     15746       127  23SM      H18G           -2.3656303160      -23.5322020266       -7.2027847519  MEMB      127             0.0000000000
     15747       127  23SM      C19F           -2.8405013137      -21.8818191606       -5.9254083185  MEMB      127             0.0000000000
     15748       127  23SM      H19F           -3.6387709740      -22.5442855823       -5.5276331191  MEMB      127             0.0000000000
     15749       127  23SM      H19G           -3.1650974567      -20.8194551033       -5.9069530663  MEMB      127             0.0000000000
     15750       127  23SM      C20F           -1.6281752589      -22.0117177196       -4.9338376411  MEMB      127             0.0000000000
     15751       127  23SM      H20F           -0.7501889396      -21.4865471879       -5.3670327740  MEMB      127             0.0000000000
     15752       127  23SM      H20G           -1.3408737206      -23.0847336493       -4.9134438455  MEMB      127             0.0000000000
     15753       127  23SM      C21F           -1.7979324923      -21.5179904670       -3.5163550289  MEMB      127             0.0000000000
     15754       127  23SM      H21F           -2.1208995895      -20.4549840314       -3.5218967065  MEMB      127             0.0000000000
     15755       127  23SM      H21G           -0.8426497616      -21.5975973600       -2.9547330119  MEMB      127             0.0000000000
     15756       127  23SM      C22F           -2.9367511566      -22.1613274772       -2.6590026959  MEMB      127             0.0000000000
     15757       127  23SM      H22F           -2.6810802783      -23.2387738166       -2.7487966651  MEMB      127             0.0000000000
     15758       127  23SM      H22G           -3.9328317240      -22.0904284016       -3.1459504864  MEMB      127             0.0000000000
     15759       127  23SM      C23F           -3.1372075598      -21.4641806276       -1.2771714647  MEMB      127             0.0000000000
     15760       127  23SM      H23F           -2.4073052366      -21.9664617721       -0.6068907174  MEMB      127             0.0000000000
     15761       127  23SM      H23G           -4.1462884262      -21.7395812322       -0.9026955608  MEMB      127             0.0000000000
     15762       127  23SM      H23H           -2.9741008161      -20.3653380167       -1.2933638997  MEMB      127             0.0000000000
     15763       128  23SM      N               6.4354248184      -21.5752466746      -28.0476572787  MEMB      128             0.0000000000
     15764       128  23SM      C15             6.4578362143      -20.0878012472      -28.1456421432  MEMB      128             0.0000000000
     15765       128  23SM      H15A            7.3495553696      -19.8712553871      -28.7151548829  MEMB      128             0.0000000000
     15766       128  23SM      H15B            6.5557757233      -19.7872039238      -27.1129519545  MEMB      128             0.0000000000
     15767       128  23SM      H15C            5.6026448567      -19.6472963316      -28.6365628153  MEMB      128             0.0000000000
     15768       128  23SM      C14             5.1388580528      -21.9500427043      -27.2776463884  MEMB      128             0.0000000000
     15769       128  23SM      H14A            5.1632032884      -23.0296647723      -27.2925981833  MEMB      128             0.0000000000
     15770       128  23SM      H14B            4.3294473704      -21.5743402116      -27.8860064832  MEMB      128             0.0000000000
     15771       128  23SM      H14C            5.1257203463      -21.4995920405      -26.2961569690  MEMB      128             0.0000000000
     15772       128  23SM      C13             6.3983311652      -22.1781455047      -29.4142982252  MEMB      128             0.0000000000
     15773       128  23SM      H13A            7.3886930214      -21.9769624093      -29.7952297695  MEMB      128             0.0000000000
     15774       128  23SM      H13B            5.5749255416      -21.7003650858      -29.9243265163  MEMB      128             0.0000000000
     15775       128  23SM      H13C            6.2963107730      -23.2505195293      -29.3368014430  MEMB      128             0.0000000000
     15776       128  23SM      C12             7.6607479177      -22.1611573955      -27.3388196096  MEMB      128             0.0000000000
     15777       128  23SM      H12A            8.5494549147      -22.0663928852      -27.9451362062  MEMB      128             0.0000000000
     15778       128  23SM      H12B            7.5121490181      -23.2267146222      -27.2444472657  MEMB      128             0.0000000000
     15779       128  23SM      C11             8.0464072829      -21.6832799055      -25.8875707569  MEMB      128             0.0000000000
     15780       128  23SM      H11A            8.3275476172      -20.6116661475      -25.9707869769  MEMB      128             0.0000000000
     15781       128  23SM      H11B            8.9767408639      -22.1922342058      -25.5562613753  MEMB      128             0.0000000000
     15782       128  23SM      P               6.8999964095      -23.0962614370      -24.0238365635  MEMB      128             0.0000000000
     15783       128  23SM      O13             5.4508462466      -23.3512239288      -23.8858348476  MEMB      128             0.0000000000
     15784       128  23SM      O14             7.7455714609      -24.1710745426      -24.5699848058  MEMB      128             0.0000000000
     15785       128  23SM      O11             7.3824509364      -22.8724382591      -22.5859718171  MEMB      128             0.0000000000
     15786       128  23SM      O12             7.0834029841      -21.7319424010      -24.8227375656  MEMB      128             0.0000000000
     15787       128  23SM      C1S             7.4829297040      -21.5879666035      -21.9545203944  MEMB      128             0.0000000000
     15788       128  23SM      H1S             6.4711639520      -21.1292486519      -21.9393901602  MEMB      128             0.0000000000
     15789       128  23SM      H1T             8.2207970521      -20.9799411128      -22.5203628898  MEMB      128             0.0000000000
     15790       128  23SM      NF              6.6400131025      -22.2717880078      -19.7789768331  MEMB      128             0.0000000000
     15791       128  23SM      HNF             6.2784067912      -21.5214688538      -19.2310071821  MEMB      128             0.0000000000
     15792       128  23SM      C2S             7.8306539179      -21.8706332387      -20.4848668744  MEMB      128             0.0000000000
     15793       128  23SM      H2S             8.5135018122      -22.7466341180      -20.4591344031  MEMB      128             0.0000000000
     15794       128  23SM      C3S             8.4651266260      -20.6495225185      -19.8800613729  MEMB      128             0.0000000000
     15795       128  23SM      H3S             7.7002303146      -19.8437911515      -19.8872653687  MEMB      128             0.0000000000
     15796       128  23SM      O3              9.6121385113      -20.2815089969      -20.6101762569  MEMB      128             0.0000000000
     15797       128  23SM      HO3             9.8570180616      -21.0463716874      -21.1361221689  MEMB      128             0.0000000000
     15798       128  23SM      C4S             8.8334254357      -20.9413858669      -18.4542653964  MEMB      128             0.0000000000
     15799       128  23SM      H4S             9.2346710519      -21.9414119293      -18.2330194584  MEMB      128             0.0000000000
     15800       128  23SM      C5S             8.6020016628      -20.1475120119      -17.4118405812  MEMB      128             0.0000000000
     15801       128  23SM      H5S             8.2303448667      -19.1322515465      -17.6146146139  MEMB      128             0.0000000000
     15802       128  23SM      C6S             8.9587500886      -20.3519795992      -16.0106322462  MEMB      128             0.0000000000
     15803       128  23SM      H6S             8.1990035289      -19.8915134440      -15.3434909894  MEMB      128             0.0000000000
     15804       128  23SM      H6T             9.9832932754      -19.9315255248      -15.9220282242  MEMB      128             0.0000000000
     15805       128  23SM      C7S             9.0822281544      -21.8677102690      -15.5526817679  MEMB      128             0.0000000000
     15806       128  23SM      H7S             9.7574386888      -22.4913175151      -16.1768016054  MEMB      128             0.0000000000
     15807       128  23SM      H7T             8.1827673041      -22.4139387022      -15.9089478162  MEMB      128             0.0000000000
     15808       128  23SM      C8S             9.3195317885      -22.0347334690      -14.0313941705  MEMB      128             0.0000000000
     15809       128  23SM      H8S            10.1835061176      -21.4343204608      -13.6744989753  MEMB      128             0.0000000000
     15810       128  23SM      H8T             9.5282277828      -23.1259551063      -14.0299255932  MEMB      128             0.0000000000
     15811       128  23SM      C9S             8.1504493543      -21.7246994631      -13.0621876663  MEMB      128             0.0000000000
     15812       128  23SM      H9S             7.3484820597      -22.4888294675      -12.9768947473  MEMB      128             0.0000000000
     15813       128  23SM      H9T             7.7052036148      -20.7090504408      -13.1295250437  MEMB      128             0.0000000000
     15814       128  23SM      C10S            8.5535762256      -21.6859455567      -11.5751541060  MEMB      128             0.0000000000
     15815       128  23SM      H10S            8.9435499574      -20.7020156881      -11.2373320979  MEMB      128             0.0000000000
     15816       128  23SM      H10T            9.2260139003      -22.5258865195      -11.2983006823  MEMB      128             0.0000000000
     15817       128  23SM      C11S            7.3363580236      -21.9872169170      -10.6564703093  MEMB      128             0.0000000000
     15818       128  23SM      H11S            6.8986842317      -22.9911890583      -10.8430256461  MEMB      128             0.0000000000
     15819       128  23SM      H11T            6.5320851636      -21.2830915999      -10.9592474944  MEMB      128             0.0000000000
     15820       128  23SM      C12S            7.7361872499      -22.1537993271       -9.2238430403  MEMB      128             0.0000000000
     15821       128  23SM      H12S            8.4692189208      -22.9880931638       -9.1931914118  MEMB      128             0.0000000000
     15822       128  23SM      H12T            6.8202480826      -22.6000615838       -8.7808680499  MEMB      128             0.0000000000
     15823       128  23SM      C13S            8.2115260891      -20.8769627096       -8.4588125676  MEMB      128             0.0000000000
     15824       128  23SM      H13S            7.4977096956      -20.0490342224       -8.6571099439  MEMB      128             0.0000000000
     15825       128  23SM      H13T            9.2510052056      -20.6731032584       -8.7938428968  MEMB      128             0.0000000000
     15826       128  23SM      C14S            8.2111417962      -21.1827027713       -6.9331508319  MEMB      128             0.0000000000
     15827       128  23SM      H14S            8.8138404857      -22.0927117619       -6.7258857853  MEMB      128             0.0000000000
     15828       128  23SM      H14T            7.1916184947      -21.3235478190       -6.5147544420  MEMB      128             0.0000000000
     15829       128  23SM      C15S            8.7575076981      -20.0619876372       -6.0303293664  MEMB      128             0.0000000000
     15830       128  23SM      H15S            8.1179566050      -19.1786953502       -6.2426734449  MEMB      128             0.0000000000
     15831       128  23SM      H15T            9.8631070026      -20.0070180513       -6.1249318461  MEMB      128             0.0000000000
     15832       128  23SM      C16S            8.5409968332      -20.3560409785       -4.5934493583  MEMB      128             0.0000000000
     15833       128  23SM      H16S            9.0787944409      -21.3095731362       -4.4040529413  MEMB      128             0.0000000000
     15834       128  23SM      H16T            7.4861199593      -20.5902195916       -4.3351549177  MEMB      128             0.0000000000
     15835       128  23SM      C17S            9.1083868362      -19.2012253363       -3.6997646018  MEMB      128             0.0000000000
     15836       128  23SM      H17S            8.4565716271      -18.3105500681       -3.8268690519  MEMB      128             0.0000000000
     15837       128  23SM      H17T           10.0539846309      -18.8221226864       -4.1429888201  MEMB      128             0.0000000000
     15838       128  23SM      C18S            9.1863715931      -19.5298362279       -2.1787944047  MEMB      128             0.0000000000
     15839       128  23SM      H18S            8.1980601162      -19.5574697677       -1.6720431811  MEMB      128             0.0000000000
     15840       128  23SM      H18T            9.7948125889      -18.7049367952       -1.7502371525  MEMB      128             0.0000000000
     15841       128  23SM      H18U            9.6466125855      -20.5371461357       -2.0903294528  MEMB      128             0.0000000000
     15842       128  23SM      C1F             5.9422092358      -23.4275321123      -19.8827843685  MEMB      128             0.0000000000
     15843       128  23SM      OF              6.3783045883      -24.4616091949      -20.3132726282  MEMB      128             0.0000000000
     15844       128  23SM      C2F             4.5560346755      -23.3201254787      -19.3555733299  MEMB      128             0.0000000000
     15845       128  23SM      H2F             3.8281720951      -23.3692429453      -20.1935021894  MEMB      128             0.0000000000
     15846       128  23SM      H2G             4.4166498584      -22.4344906020      -18.6994153933  MEMB      128             0.0000000000
     15847       128  23SM      C3F             4.4002596885      -24.5504491558      -18.4274287647  MEMB      128             0.0000000000
     15848       128  23SM      H3F             4.5306292065      -25.4497463486      -19.0666387023  MEMB      128             0.0000000000
     15849       128  23SM      H3G             3.4104781800      -24.6227490401      -17.9280025020  MEMB      128             0.0000000000
     15850       128  23SM      C4F             5.3800790651      -24.5987562349      -17.2906405189  MEMB      128             0.0000000000
     15851       128  23SM      H4F             6.4452423915      -24.6486255673      -17.6025076794  MEMB      128             0.0000000000
     15852       128  23SM      H4G             5.2669489264      -25.5915164860      -16.8048941003  MEMB      128             0.0000000000
     15853       128  23SM      C5F             5.3516758476      -23.4426951260      -16.2984839902  MEMB      128             0.0000000000
     15854       128  23SM      H5F             5.7258019740      -22.5264577823      -16.8033209089  MEMB      128             0.0000000000
     15855       128  23SM      H5G             5.9935083560      -23.6706966534      -15.4207673602  MEMB      128             0.0000000000
     15856       128  23SM      C6F             3.9980027096      -23.0765334756      -15.6742086264  MEMB      128             0.0000000000
     15857       128  23SM      H6F             3.7127818061      -23.8670580946      -14.9475444396  MEMB      128             0.0000000000
     15858       128  23SM      H6G             3.1714400330      -22.9419384707      -16.4042767061  MEMB      128             0.0000000000
     15859       128  23SM      C7F             4.0929478920      -21.7576925645      -14.9061491549  MEMB      128             0.0000000000
     15860       128  23SM      H7F             3.1424215230      -21.1993114464      -14.7681961431  MEMB      128             0.0000000000
     15861       128  23SM      H7G             4.8396048206      -21.1379876903      -15.4472498644  MEMB      128             0.0000000000
     15862       128  23SM      C8F             4.6597529733      -21.9602054530      -13.5589442876  MEMB      128             0.0000000000
     15863       128  23SM      H8F             5.1807194218      -21.0583048757      -13.1723046716  MEMB      128             0.0000000000
     15864       128  23SM      H8G             5.3018541399      -22.8363124956      -13.3255698421  MEMB      128             0.0000000000
     15865       128  23SM      C9F             3.4578540722      -22.2429552141      -12.5775897430  MEMB      128             0.0000000000
     15866       128  23SM      H9F             3.2585642049      -23.3270365187      -12.7167752920  MEMB      128             0.0000000000
     15867       128  23SM      H9G             2.5115131903      -21.7562149962      -12.8967199109  MEMB      128             0.0000000000
     15868       128  23SM      C10F            3.6304660904      -21.9952551723      -11.0277130823  MEMB      128             0.0000000000
     15869       128  23SM      H10F            4.5217949240      -22.5489291208      -10.6626114320  MEMB      128             0.0000000000
     15870       128  23SM      H10G            2.7284176634      -22.5106200274      -10.6339765794  MEMB      128             0.0000000000
     15871       128  23SM      C11F            3.8269151550      -20.5709639655      -10.4409434633  MEMB      128             0.0000000000
     15872       128  23SM      H11F            2.9518112663      -19.9933142790      -10.8081414203  MEMB      128             0.0000000000
     15873       128  23SM      H11G            4.6970135110      -20.1001368623      -10.9464835722  MEMB      128             0.0000000000
     15874       128  23SM      C12F            3.9711273638      -20.5856723464       -8.8921047913  MEMB      128             0.0000000000
     15875       128  23SM      H12F            4.9179578370      -21.0832905996       -8.5917562668  MEMB      128             0.0000000000
     15876       128  23SM      H12G            3.1509861681      -21.2303740868       -8.5099418255  MEMB      128             0.0000000000
     15877       128  23SM      C13F            4.1240262515      -19.0979506524       -8.4233524018  MEMB      128             0.0000000000
     15878       128  23SM      H13F            3.1556783595      -18.5600139541       -8.5084821294  MEMB      128             0.0000000000
     15879       128  23SM      H13G            4.8099801395      -18.6464204632       -9.1716229823  MEMB      128             0.0000000000
     15880       128  23SM      C14F            4.8611336349      -18.9104513019       -7.0255387578  MEMB      128             0.0000000000
     15881       128  23SM      H14F            5.0713860825      -17.8360004487       -6.8366716066  MEMB      128             0.0000000000
     15882       128  23SM      H14G            5.8214871160      -19.4628171233       -6.9422670560  MEMB      128             0.0000000000
     15883       128  23SM      C15F            3.9661628730      -19.3806118210       -5.8183917293  MEMB      128             0.0000000000
     15884       128  23SM      H15F            3.4215869068      -20.2963822684       -6.1332284323  MEMB      128             0.0000000000
     15885       128  23SM      H15G            3.1944876190      -18.5989665285       -5.6514513002  MEMB      128             0.0000000000
     15886       128  23SM      C16F            4.6660537506      -19.4881252684       -4.4603792772  MEMB      128             0.0000000000
     15887       128  23SM      H16F            5.6426721994      -18.9628228224       -4.5281636807  MEMB      128             0.0000000000
     15888       128  23SM      H16G            4.9616924941      -20.5586600700       -4.4308148554  MEMB      128             0.0000000000
     15889       128  23SM      C17F            3.8561224879      -19.0528498676       -3.2936136427  MEMB      128             0.0000000000
     15890       128  23SM      H17F            2.7959575250      -19.3814638643       -3.3424413781  MEMB      128             0.0000000000
     15891       128  23SM      H17G            3.9088794508      -17.9446285713       -3.3517764019  MEMB      128             0.0000000000
     15892       128  23SM      C18F            4.5042601603      -19.3749325089       -1.9547402511  MEMB      128             0.0000000000
     15893       128  23SM      H18F            4.0104088745      -18.7590755481       -1.1729762097  MEMB      128             0.0000000000
     15894       128  23SM      H18G            5.4954089414      -18.8744563068       -1.9930627847  MEMB      128             0.0000000000
     15895       128  23SM      C19F            4.4698700256      -20.8249318362       -1.4608049845  MEMB      128             0.0000000000
     15896       128  23SM      H19F            4.7326728131      -21.5650864752       -2.2465708341  MEMB      128             0.0000000000
     15897       128  23SM      H19G            3.3903191408      -21.0410880568       -1.3119177584  MEMB      128             0.0000000000
     15898       128  23SM      C20F            5.2714429814      -21.1461693048       -0.1737840527  MEMB      128             0.0000000000
     15899       128  23SM      H20F            5.2365756144      -20.2279807805        0.4507437403  MEMB      128             0.0000000000
     15900       128  23SM      H20G            6.3601449070      -21.3160946457       -0.3158202830  MEMB      128             0.0000000000
     15901       128  23SM      C21F            4.4734757452      -22.2258656466        0.7733398763  MEMB      128             0.0000000000
     15902       128  23SM      H21F            4.1151664013      -22.8889935057       -0.0428691763  MEMB      128             0.0000000000
     15903       128  23SM      H21G            3.6041051847      -21.7683084663        1.2921438549  MEMB      128             0.0000000000
     15904       128  23SM      C22F            5.2942297492      -22.8310043286        1.9549201182  MEMB      128             0.0000000000
     15905       128  23SM      H22F            4.8221002220      -23.7249165123        2.4157203955  MEMB      128             0.0000000000
     15906       128  23SM      H22G            5.2839613666      -22.0437969156        2.7388344743  MEMB      128             0.0000000000
     15907       128  23SM      C23F            6.7237055818      -23.2105315277        1.5595877172  MEMB      128             0.0000000000
     15908       128  23SM      H23F            6.6880277130      -23.9750848388        0.7542886111  MEMB      128             0.0000000000
     15909       128  23SM      H23G            7.1506169277      -23.7407332091        2.4376264714  MEMB      128             0.0000000000
     15910       128  23SM      H23H            7.4154304595      -22.4033814454        1.2365602582  MEMB      128             0.0000000000
     15911       129  DOPC      N              -8.5770305323      -19.8313947988      -19.4109354023  MEMB      129             0.0000000000
     15912       129  DOPC      C12            -9.0534006239      -20.4595108502      -18.1229045663  MEMB      129             0.0000000000
     15913       129  DOPC      H12A          -10.1026620654      -20.2212199618      -18.0298034340  MEMB      129             0.0000000000
     15914       129  DOPC      H12B           -8.6111724424      -19.8240737906      -17.3698747773  MEMB      129             0.0000000000
     15915       129  DOPC      C13            -7.2685336843      -20.4399021100      -19.8471893412  MEMB      129             0.0000000000
     15916       129  DOPC      H13A           -7.4305590352      -21.4646094588      -20.1473934738  MEMB      129             0.0000000000
     15917       129  DOPC      H13B           -6.8522322545      -19.8869789546      -20.6762666482  MEMB      129             0.0000000000
     15918       129  DOPC      H13C           -6.5528225799      -20.5119158343      -19.0416016549  MEMB      129             0.0000000000
     15919       129  DOPC      C14            -8.2475837278      -18.3773776479      -19.1438233327  MEMB      129             0.0000000000
     15920       129  DOPC      H14A           -9.1607889608      -17.8254205572      -18.9770917119  MEMB      129             0.0000000000
     15921       129  DOPC      H14B           -7.6225614216      -18.4409830274      -18.2653580393  MEMB      129             0.0000000000
     15922       129  DOPC      H14C           -7.7615927211      -17.8981025131      -19.9807868159  MEMB      129             0.0000000000
     15923       129  DOPC      C15            -9.5855000704      -19.9872238014      -20.5139771129  MEMB      129             0.0000000000
     15924       129  DOPC      H15A           -9.2651112942      -19.4018347787      -21.3631358525  MEMB      129             0.0000000000
     15925       129  DOPC      H15B          -10.5127915555      -19.5070657888      -20.2383343865  MEMB      129             0.0000000000
     15926       129  DOPC      H15C           -9.6243505291      -21.0175200133      -20.8355053537  MEMB      129             0.0000000000
     15927       129  DOPC      C11            -8.7169351555      -22.0145317594      -17.8870100926  MEMB      129             0.0000000000
     15928       129  DOPC      H11A           -7.6195800680      -22.1839940501      -17.9246325936  MEMB      129             0.0000000000
     15929       129  DOPC      H11B           -9.0407446254      -22.3501124815      -16.8786183351  MEMB      129             0.0000000000
     15930       129  DOPC      P             -10.8146338161      -23.2304809803      -18.8809571131  MEMB      129             0.0000000000
     15931       129  DOPC      O13           -11.1842001477      -24.0577593776      -20.0295459385  MEMB      129             0.0000000000
     15932       129  DOPC      O14           -11.6596587133      -22.0296722960      -18.7378805963  MEMB      129             0.0000000000
     15933       129  DOPC      O12            -9.2592911630      -22.8791077568      -18.8861209343  MEMB      129             0.0000000000
     15934       129  DOPC      O11           -10.9994575106      -24.0364493208      -17.5396555731  MEMB      129             0.0000000000
     15935       129  DOPC      C1            -12.3532612775      -24.3835906025      -17.1446060980  MEMB      129             0.0000000000
     15936       129  DOPC      HA            -12.6460335614      -25.3842196549      -17.5284636948  MEMB      129             0.0000000000
     15937       129  DOPC      HB            -13.1032394825      -23.6602522953      -17.5301386229  MEMB      129             0.0000000000
     15938       129  DOPC      C2            -12.5952301166      -24.4700104832      -15.5991783869  MEMB      129             0.0000000000
     15939       129  DOPC      HS            -13.6973704433      -24.4048158008      -15.4752530950  MEMB      129             0.0000000000
     15940       129  DOPC      O21           -12.0098661274      -23.3754651888      -14.9457312342  MEMB      129             0.0000000000
     15941       129  DOPC      C21           -12.6341535836      -22.2023173945      -15.0959697488  MEMB      129             0.0000000000
     15942       129  DOPC      O22           -13.6647314625      -22.0208809754      -15.6690177659  MEMB      129             0.0000000000
     15943       129  DOPC      C22           -11.8285452646      -21.1016819709      -14.4081771558  MEMB      129             0.0000000000
     15944       129  DOPC      H2R           -11.8977978440      -20.1620572211      -14.9969302195  MEMB      129             0.0000000000
     15945       129  DOPC      H2S           -10.7785187513      -21.4501643816      -14.3065629558  MEMB      129             0.0000000000
     15946       129  DOPC      C3            -12.0657675110      -25.6809014506      -14.8285931062  MEMB      129             0.0000000000
     15947       129  DOPC      HX            -12.2760457704      -26.6346625105      -15.3581628761  MEMB      129             0.0000000000
     15948       129  DOPC      HY            -12.6168114372      -25.6186927203      -13.8658880492  MEMB      129             0.0000000000
     15949       129  DOPC      O31           -10.6499200705      -25.6436997568      -14.7960719869  MEMB      129             0.0000000000
     15950       129  DOPC      C31           -10.1414450844      -25.3547393121      -13.5672832756  MEMB      129             0.0000000000
     15951       129  DOPC      O32           -10.7410072116      -25.3425734959      -12.5183492079  MEMB      129             0.0000000000
     15952       129  DOPC      C32            -8.6564612349      -25.1238281838      -13.5351508688  MEMB      129             0.0000000000
     15953       129  DOPC      H2X            -8.3341942001      -25.2687517967      -12.4818406206  MEMB      129             0.0000000000
     15954       129  DOPC      H2Y            -8.1216507340      -25.8222846072      -14.2137208937  MEMB      129             0.0000000000
     15955       129  DOPC      C23           -12.3027831562      -20.8036186339      -12.9686940538  MEMB      129             0.0000000000
     15956       129  DOPC      H3R           -13.4048391512      -20.7159269166      -12.8586778998  MEMB      129             0.0000000000
     15957       129  DOPC      H3S           -11.9610290319      -19.8064662102      -12.6176781962  MEMB      129             0.0000000000
     15958       129  DOPC      C24           -11.8894794442      -21.6836180351      -11.8121448253  MEMB      129             0.0000000000
     15959       129  DOPC      H4R           -10.7907463072      -21.6662794983      -11.6484195040  MEMB      129             0.0000000000
     15960       129  DOPC      H4S           -12.1213413776      -22.7371905389      -12.0777498891  MEMB      129             0.0000000000
     15961       129  DOPC      C25           -12.6844000625      -21.3241344722      -10.5055048640  MEMB      129             0.0000000000
     15962       129  DOPC      H5R           -13.7755289590      -21.5309227924      -10.5370887984  MEMB      129             0.0000000000
     15963       129  DOPC      H5S           -12.4903916048      -20.2708571991      -10.2100589541  MEMB      129             0.0000000000
     15964       129  DOPC      C26           -12.1266223692      -22.0776020222       -9.2488973599  MEMB      129             0.0000000000
     15965       129  DOPC      H6R           -12.4016434912      -21.4465558045       -8.3768505307  MEMB      129             0.0000000000
     15966       129  DOPC      H6S           -11.0234365399      -22.2070932952       -9.2257898032  MEMB      129             0.0000000000
     15967       129  DOPC      C27           -12.7382197543      -23.4374730001       -9.0759673153  MEMB      129             0.0000000000
     15968       129  DOPC      H7R           -12.6918140256      -24.1078880922       -9.9606773099  MEMB      129             0.0000000000
     15969       129  DOPC      H7S           -13.8364103158      -23.2798196468       -9.0172827549  MEMB      129             0.0000000000
     15970       129  DOPC      C28           -12.4210256903      -24.2132028724       -7.7824388514  MEMB      129             0.0000000000
     15971       129  DOPC      H8R           -11.3329861905      -24.4231745847       -7.8624575530  MEMB      129             0.0000000000
     15972       129  DOPC      H8S           -12.9065194605      -25.2123130988       -7.8023250458  MEMB      129             0.0000000000
     15973       129  DOPC      C29           -12.6514301750      -23.3762658045       -6.5395778697  MEMB      129             0.0000000000
     15974       129  DOPC      H9R           -12.1907250972      -22.3791485322       -6.4803499907  MEMB      129             0.0000000000
     15975       129  DOPC      C210          -13.4521027202      -23.6341778440       -5.4602619106  MEMB      129             0.0000000000
     15976       129  DOPC      H10R          -13.4277571584      -23.0061253556       -4.5575121751  MEMB      129             0.0000000000
     15977       129  DOPC      C211          -14.3299444224      -24.8031900716       -5.2205886220  MEMB      129             0.0000000000
     15978       129  DOPC      H11R          -14.3815201760      -25.4138098507       -6.1473058931  MEMB      129             0.0000000000
     15979       129  DOPC      H11S          -15.3432932861      -24.3961190401       -5.0162907736  MEMB      129             0.0000000000
     15980       129  DOPC      C212          -13.6954965758      -25.6602767641       -4.1478732444  MEMB      129             0.0000000000
     15981       129  DOPC      H12R          -14.3910259199      -26.4980553699       -3.9272229593  MEMB      129             0.0000000000
     15982       129  DOPC      H12S          -13.6076229272      -25.0277948535       -3.2387169984  MEMB      129             0.0000000000
     15983       129  DOPC      C213          -12.3830831098      -26.4166942238       -4.4969047146  MEMB      129             0.0000000000
     15984       129  DOPC      H13R          -11.6669709192      -25.5781670446       -4.6324638148  MEMB      129             0.0000000000
     15985       129  DOPC      H13S          -12.5246498230      -26.9215577054       -5.4763910210  MEMB      129             0.0000000000
     15986       129  DOPC      C214          -12.0154426134      -27.4802746600       -3.5154858122  MEMB      129             0.0000000000
     15987       129  DOPC      H14R          -11.0817284024      -28.0094171776       -3.8027256276  MEMB      129             0.0000000000
     15988       129  DOPC      H14S          -12.7290066913      -28.3281428970       -3.5946453489  MEMB      129             0.0000000000
     15989       129  DOPC      C215          -11.9249188342      -26.9180348089       -2.0512524649  MEMB      129             0.0000000000
     15990       129  DOPC      H15R          -11.9059129682      -27.7966059273       -1.3714924746  MEMB      129             0.0000000000
     15991       129  DOPC      H15S          -12.8498411164      -26.4135783117       -1.6985993490  MEMB      129             0.0000000000
     15992       129  DOPC      C216          -10.5878345834      -26.1283180105       -1.9162838000  MEMB      129             0.0000000000
     15993       129  DOPC      H16R          -10.7368675676      -25.2749985573       -2.6119523692  MEMB      129             0.0000000000
     15994       129  DOPC      H16S           -9.6585001533      -26.6746855389       -2.1848744506  MEMB      129             0.0000000000
     15995       129  DOPC      C217          -10.3634206787      -25.5097736513       -0.4801207359  MEMB      129             0.0000000000
     15996       129  DOPC      H17R          -11.0552252462      -24.6606570802       -0.2937656039  MEMB      129             0.0000000000
     15997       129  DOPC      H17S           -9.3316671671      -25.0978718004       -0.4681871600  MEMB      129             0.0000000000
     15998       129  DOPC      C218          -10.4627493024      -26.4555967352        0.6580812559  MEMB      129             0.0000000000
     15999       129  DOPC      H18R          -11.5490421595      -26.6290007488        0.8137073818  MEMB      129             0.0000000000
     16000       129  DOPC      H18S          -10.2204328536      -25.9522300538        1.6184069146  MEMB      129             0.0000000000
     16001       129  DOPC      H18T           -9.9253069161      -27.4083505787        0.4638232106  MEMB      129             0.0000000000
     16002       129  DOPC      C33            -8.4969078508      -23.6230139977      -13.8154210543  MEMB      129             0.0000000000
     16003       129  DOPC      H3X            -9.2887629430      -23.0915265213      -13.2455021962  MEMB      129             0.0000000000
     16004       129  DOPC      H3Y            -8.7806494046      -23.4517372850      -14.8758345795  MEMB      129             0.0000000000
     16005       129  DOPC      C34            -7.0567681509      -23.0918156731      -13.6316949223  MEMB      129             0.0000000000
     16006       129  DOPC      H4X            -6.2576079482      -23.5064223359      -14.2826677868  MEMB      129             0.0000000000
     16007       129  DOPC      H4Y            -6.7116186147      -23.4214555953      -12.6284350830  MEMB      129             0.0000000000
     16008       129  DOPC      C35            -7.0586045997      -21.5633612847      -13.9194706834  MEMB      129             0.0000000000
     16009       129  DOPC      H5X            -7.6254228830      -21.2506261765      -14.8223744888  MEMB      129             0.0000000000
     16010       129  DOPC      H5Y            -5.9761794696      -21.3154651875      -13.8844852767  MEMB      129             0.0000000000
     16011       129  DOPC      C36            -7.6834447862      -20.6983375636      -12.7600780594  MEMB      129             0.0000000000
     16012       129  DOPC      H6X            -8.7827965435      -20.8368775804      -12.6791236697  MEMB      129             0.0000000000
     16013       129  DOPC      H6Y            -7.2479956296      -21.0736917760      -11.8093867656  MEMB      129             0.0000000000
     16014       129  DOPC      C37            -7.4993085246      -19.2269103415      -12.9356281993  MEMB      129             0.0000000000
     16015       129  DOPC      H7X            -6.4206260528      -19.0025471093      -13.0785470807  MEMB      129             0.0000000000
     16016       129  DOPC      H7Y            -7.9412088846      -18.9216989070      -13.9081971827  MEMB      129             0.0000000000
     16017       129  DOPC      C38            -7.9475636852      -18.4656206697      -11.7306378655  MEMB      129             0.0000000000
     16018       129  DOPC      H8X            -8.9478083995      -18.7728784405      -11.3572413541  MEMB      129             0.0000000000
     16019       129  DOPC      H8Y            -7.9482509143      -17.4078245044      -12.0703248740  MEMB      129             0.0000000000
     16020       129  DOPC      C39            -6.9392324939      -18.4685226849      -10.6066326403  MEMB      129             0.0000000000
     16021       129  DOPC      H9X            -5.9236729190      -18.2146945738      -10.9445831030  MEMB      129             0.0000000000
     16022       129  DOPC      C310           -7.0120196305      -18.7349342096       -9.2677210184  MEMB      129             0.0000000000
     16023       129  DOPC      H10X           -6.1430867884      -18.5424812393       -8.6212555007  MEMB      129             0.0000000000
     16024       129  DOPC      C311           -8.2513810357      -19.1135844603       -8.5349864344  MEMB      129             0.0000000000
     16025       129  DOPC      H11X           -9.1816377178      -18.8176304688       -9.0654147318  MEMB      129             0.0000000000
     16026       129  DOPC      H11Y           -8.2573426204      -18.5496211461       -7.5777869437  MEMB      129             0.0000000000
     16027       129  DOPC      C312           -8.3580152629      -20.6425116347       -8.1263839700  MEMB      129             0.0000000000
     16028       129  DOPC      H12X           -8.4380048996      -21.1517671716       -9.1105484444  MEMB      129             0.0000000000
     16029       129  DOPC      H12Y           -9.3156165077      -20.7032451775       -7.5663543756  MEMB      129             0.0000000000
     16030       129  DOPC      C313           -7.2084460973      -21.0849433856       -7.1789480685  MEMB      129             0.0000000000
     16031       129  DOPC      H13X           -6.2400619383      -21.0979734325       -7.7233596482  MEMB      129             0.0000000000
     16032       129  DOPC      H13Y           -7.2655615593      -20.3414746907       -6.3553507490  MEMB      129             0.0000000000
     16033       129  DOPC      C314           -7.3773738148      -22.4052551262       -6.5202357343  MEMB      129             0.0000000000
     16034       129  DOPC      H14X           -7.6652086303      -23.1897790332       -7.2523522056  MEMB      129             0.0000000000
     16035       129  DOPC      H14Y           -6.4401979416      -22.7282062230       -6.0185134609  MEMB      129             0.0000000000
     16036       129  DOPC      C315           -8.5558704914      -22.4406837967       -5.4552633194  MEMB      129             0.0000000000
     16037       129  DOPC      H15X           -8.5321926896      -23.4763574467       -5.0538399298  MEMB      129             0.0000000000
     16038       129  DOPC      H15Y           -9.5062766183      -22.0279587742       -5.8561467354  MEMB      129             0.0000000000
     16039       129  DOPC      C316           -8.2641870625      -21.5242277151       -4.2789095938  MEMB      129             0.0000000000
     16040       129  DOPC      H16X           -7.1644481587      -21.4073200126       -4.1729493586  MEMB      129             0.0000000000
     16041       129  DOPC      H16Y           -8.5896178670      -20.4662584800       -4.3743916220  MEMB      129             0.0000000000
     16042       129  DOPC      C317           -8.6236877068      -22.0868320587       -2.8502696815  MEMB      129             0.0000000000
     16043       129  DOPC      H17X           -8.6416592540      -21.3269484674       -2.0399767589  MEMB      129             0.0000000000
     16044       129  DOPC      H17Y           -9.6272114993      -22.5633934696       -2.8625245823  MEMB      129             0.0000000000
     16045       129  DOPC      C318           -7.6117729807      -23.1900667884       -2.4755025139  MEMB      129             0.0000000000
     16046       129  DOPC      H18X           -7.5447377079      -24.0428523984       -3.1844350952  MEMB      129             0.0000000000
     16047       129  DOPC      H18Y           -6.6297011779      -22.6707632559       -2.4620799974  MEMB      129             0.0000000000
     16048       129  DOPC      H18Z           -7.9289239535      -23.4925383299       -1.4545985948  MEMB      129             0.0000000000
     16049       130  DOPC      N              10.5313414900       21.5843108137      -21.0329606842  MEMB      130             0.0000000000
     16050       130  DOPC      C12            11.2579336818       20.9775932679      -19.8903630410  MEMB      130             0.0000000000
     16051       130  DOPC      H12A           12.0979219678       20.4480067396      -20.3150483810  MEMB      130             0.0000000000
     16052       130  DOPC      H12B           10.6371296235       20.2306632979      -19.4180305341  MEMB      130             0.0000000000
     16053       130  DOPC      C13             9.2170876452       22.2357666707      -20.5908839549  MEMB      130             0.0000000000
     16054       130  DOPC      H13A            9.4328088576       22.9770892993      -19.8356985180  MEMB      130             0.0000000000
     16055       130  DOPC      H13B            8.7929114964       22.6111740040      -21.5104185878  MEMB      130             0.0000000000
     16056       130  DOPC      H13C            8.4679388175       21.5333888238      -20.2564571322  MEMB      130             0.0000000000
     16057       130  DOPC      C14            10.1936395760       20.5682278849      -22.1201201874  MEMB      130             0.0000000000
     16058       130  DOPC      H14A           11.0731332418       20.0958039368      -22.5320746990  MEMB      130             0.0000000000
     16059       130  DOPC      H14B            9.5870130845       19.8595260871      -21.5759274352  MEMB      130             0.0000000000
     16060       130  DOPC      H14C            9.6400038955       21.0343456956      -22.9217573964  MEMB      130             0.0000000000
     16061       130  DOPC      C15            11.4926738317       22.6045562698      -21.6451036271  MEMB      130             0.0000000000
     16062       130  DOPC      H15A           12.2957507997       21.9893877527      -22.0233033392  MEMB      130             0.0000000000
     16063       130  DOPC      H15B           11.7916944499       23.4272311012      -21.0124954088  MEMB      130             0.0000000000
     16064       130  DOPC      H15C           11.0435075069       22.9350900019      -22.5699803333  MEMB      130             0.0000000000
     16065       130  DOPC      C11            11.6601802141       21.8045130817      -18.6845410485  MEMB      130             0.0000000000
     16066       130  DOPC      H11A           12.1769854159       21.1318594137      -17.9670660426  MEMB      130             0.0000000000
     16067       130  DOPC      H11B           12.4175442847       22.5901654495      -18.8930382366  MEMB      130             0.0000000000
     16068       130  DOPC      P               9.5684298966       21.8354785061      -16.9816909225  MEMB      130             0.0000000000
     16069       130  DOPC      O13             8.4212145571       21.2455987018      -17.6607830138  MEMB      130             0.0000000000
     16070       130  DOPC      O14             9.3066658788       22.8387458258      -15.9072573999  MEMB      130             0.0000000000
     16071       130  DOPC      O12            10.6108869625       22.5146690014      -18.0731236672  MEMB      130             0.0000000000
     16072       130  DOPC      O11            10.4490702653       20.6253890407      -16.4131724728  MEMB      130             0.0000000000
     16073       130  DOPC      C1              9.8992502790       19.3421061650      -16.2208368634  MEMB      130             0.0000000000
     16074       130  DOPC      HA             10.1454121057       18.6441856865      -17.0494696881  MEMB      130             0.0000000000
     16075       130  DOPC      HB              8.7884720694       19.3228062176      -16.2098711539  MEMB      130             0.0000000000
     16076       130  DOPC      C2             10.4817038732       18.6235223546      -14.8632466842  MEMB      130             0.0000000000
     16077       130  DOPC      HS              9.9697933147       17.6508898684      -14.7012132252  MEMB      130             0.0000000000
     16078       130  DOPC      O21            10.0374312930       19.4038535345      -13.7336761421  MEMB      130             0.0000000000
     16079       130  DOPC      C21             8.7478709878       19.6310642281      -13.5362980430  MEMB      130             0.0000000000
     16080       130  DOPC      O22             7.7824868127       19.1598519606      -14.1275888741  MEMB      130             0.0000000000
     16081       130  DOPC      C22             8.6276553286       20.6024672480      -12.2960194345  MEMB      130             0.0000000000
     16082       130  DOPC      H2R             7.8191705275       20.2602088693      -11.6151875016  MEMB      130             0.0000000000
     16083       130  DOPC      H2S             8.3810009343       21.6146963191      -12.6818625863  MEMB      130             0.0000000000
     16084       130  DOPC      C3             12.0094131760       18.4117945479      -14.8332363322  MEMB      130             0.0000000000
     16085       130  DOPC      HX             12.5148170051       19.3290154379      -15.2041727501  MEMB      130             0.0000000000
     16086       130  DOPC      HY             12.1852430246       17.5372637859      -15.4955058178  MEMB      130             0.0000000000
     16087       130  DOPC      O31            12.3760302468       18.1997729422      -13.5075406056  MEMB      130             0.0000000000
     16088       130  DOPC      C31            13.0527038760       19.1917399016      -12.9337184311  MEMB      130             0.0000000000
     16089       130  DOPC      O32            13.4124168331       20.2570544473      -13.4657376660  MEMB      130             0.0000000000
     16090       130  DOPC      C32            13.1965476979       18.8806517551      -11.4601102259  MEMB      130             0.0000000000
     16091       130  DOPC      H2X            12.1754697824       18.9897511702      -11.0360605498  MEMB      130             0.0000000000
     16092       130  DOPC      H2Y            13.5024320590       17.8125916948      -11.4582712484  MEMB      130             0.0000000000
     16093       130  DOPC      C23             9.8413924722       20.7134293088      -11.3923360433  MEMB      130             0.0000000000
     16094       130  DOPC      H3R            10.8043235734       20.6384475434      -11.9413917531  MEMB      130             0.0000000000
     16095       130  DOPC      H3S             9.8060210201       19.9004341308      -10.6359567360  MEMB      130             0.0000000000
     16096       130  DOPC      C24             9.8211451530       22.0243280028      -10.6400474269  MEMB      130             0.0000000000
     16097       130  DOPC      H4R             8.9308116212       22.1995885447       -9.9990244120  MEMB      130             0.0000000000
     16098       130  DOPC      H4S             9.8440193481       22.8899304706      -11.3361291322  MEMB      130             0.0000000000
     16099       130  DOPC      C25            10.8917720568       22.1124149488       -9.6216576776  MEMB      130             0.0000000000
     16100       130  DOPC      H5R            11.7745175388       21.5912742656      -10.0500199136  MEMB      130             0.0000000000
     16101       130  DOPC      H5S            10.5637460575       21.5787224142       -8.7041105614  MEMB      130             0.0000000000
     16102       130  DOPC      C26            11.0213095237       23.6310488048       -9.1258130478  MEMB      130             0.0000000000
     16103       130  DOPC      H6R             9.9966276091       23.9562451726       -8.8454645974  MEMB      130             0.0000000000
     16104       130  DOPC      H6S            11.4159516251       24.2715495254       -9.9433318751  MEMB      130             0.0000000000
     16105       130  DOPC      C27            11.9878757096       23.6886958733       -7.9565196958  MEMB      130             0.0000000000
     16106       130  DOPC      H7R            12.4414196617       24.7023462723       -7.9228870998  MEMB      130             0.0000000000
     16107       130  DOPC      H7S            12.7824753376       23.0249425748       -8.3594634681  MEMB      130             0.0000000000
     16108       130  DOPC      C28            11.5363175493       23.0884600649       -6.5988322615  MEMB      130             0.0000000000
     16109       130  DOPC      H8R            12.4055166734       23.3463514422       -5.9567214950  MEMB      130             0.0000000000
     16110       130  DOPC      H8S            11.4907203120       21.9828257181       -6.6979005445  MEMB      130             0.0000000000
     16111       130  DOPC      C29            10.2228633803       23.6620681042       -6.1517586345  MEMB      130             0.0000000000
     16112       130  DOPC      H9R             9.5666520723       24.0819451157       -6.9283472143  MEMB      130             0.0000000000
     16113       130  DOPC      C210            9.7782790307       23.8771138857       -4.8985056269  MEMB      130             0.0000000000
     16114       130  DOPC      H10R            8.7179119716       24.1558781509       -4.8095573245  MEMB      130             0.0000000000
     16115       130  DOPC      C211           10.5608199180       23.5270467481       -3.7128596566  MEMB      130             0.0000000000
     16116       130  DOPC      H11R           10.9332014193       24.4819376559       -3.2840993236  MEMB      130             0.0000000000
     16117       130  DOPC      H11S           11.5029782755       22.9741840419       -3.9153484913  MEMB      130             0.0000000000
     16118       130  DOPC      C212            9.7736056976       22.6986017526       -2.6245480142  MEMB      130             0.0000000000
     16119       130  DOPC      H12R            8.7128888295       23.0271054208       -2.5886873726  MEMB      130             0.0000000000
     16120       130  DOPC      H12S           10.2086634214       22.7254539950       -1.6026270192  MEMB      130             0.0000000000
     16121       130  DOPC      C213            9.6567284249       21.2337154878       -3.0920792832  MEMB      130             0.0000000000
     16122       130  DOPC      H13R           10.6082853593       20.7043686446       -3.3126521481  MEMB      130             0.0000000000
     16123       130  DOPC      H13S            9.0974115445       21.0509044965       -4.0344512032  MEMB      130             0.0000000000
     16124       130  DOPC      C214            8.8920063432       20.4758166770       -2.0038638409  MEMB      130             0.0000000000
     16125       130  DOPC      H14R            8.1139087242       21.2126691801       -1.7107195817  MEMB      130             0.0000000000
     16126       130  DOPC      H14S            9.6259499593       20.3054526681       -1.1873926170  MEMB      130             0.0000000000
     16127       130  DOPC      C215            8.3744386411       19.0778218894       -2.5407298088  MEMB      130             0.0000000000
     16128       130  DOPC      H15R            7.6135802132       19.2895884697       -3.3221187920  MEMB      130             0.0000000000
     16129       130  DOPC      H15S            7.7589491081       18.6324395505       -1.7300943864  MEMB      130             0.0000000000
     16130       130  DOPC      C216            9.5243570907       18.1994823337       -3.0010366196  MEMB      130             0.0000000000
     16131       130  DOPC      H16R           10.0884416126       18.6940299666       -3.8205193964  MEMB      130             0.0000000000
     16132       130  DOPC      H16S            9.0314724656       17.2576826358       -3.3241452317  MEMB      130             0.0000000000
     16133       130  DOPC      C217           10.5704996440       17.7019320413       -1.8819938001  MEMB      130             0.0000000000
     16134       130  DOPC      H17R           10.9586236743       18.5264185087       -1.2464608930  MEMB      130             0.0000000000
     16135       130  DOPC      H17S           11.4162926822       17.1838724228       -2.3825632324  MEMB      130             0.0000000000
     16136       130  DOPC      C218            9.9511642068       16.5978512265       -0.9950074220  MEMB      130             0.0000000000
     16137       130  DOPC      H18R            9.3166214630       17.1308988701       -0.2550509585  MEMB      130             0.0000000000
     16138       130  DOPC      H18S           10.7037454460       16.0275646311       -0.4095887160  MEMB      130             0.0000000000
     16139       130  DOPC      H18T            9.3894389579       15.9160515716       -1.6687539754  MEMB      130             0.0000000000
     16140       130  DOPC      C33            14.0575518203       19.8391201931      -10.5520426033  MEMB      130             0.0000000000
     16141       130  DOPC      H3X            13.5090171646       20.8023720978      -10.4773669014  MEMB      130             0.0000000000
     16142       130  DOPC      H3Y            15.0624411501       20.0155422608      -10.9918079905  MEMB      130             0.0000000000
     16143       130  DOPC      C34            14.2563704031       19.2577592830       -9.1356444854  MEMB      130             0.0000000000
     16144       130  DOPC      H4X            14.9160122132       18.3690305173       -9.2323634262  MEMB      130             0.0000000000
     16145       130  DOPC      H4Y            13.3226365459       18.9741789017       -8.6045659650  MEMB      130             0.0000000000
     16146       130  DOPC      C35            14.9832343918       20.0583675419       -8.1111357249  MEMB      130             0.0000000000
     16147       130  DOPC      H5X            14.3958484347       20.9914755902       -7.9747242702  MEMB      130             0.0000000000
     16148       130  DOPC      H5Y            16.0354270670       20.1585201387       -8.4534532416  MEMB      130             0.0000000000
     16149       130  DOPC      C36            14.8670465505       19.4508281597       -6.7395086533  MEMB      130             0.0000000000
     16150       130  DOPC      H6X            15.0224766936       18.3541358453       -6.8256967499  MEMB      130             0.0000000000
     16151       130  DOPC      H6Y            15.8099811751       19.8479849560       -6.3065400343  MEMB      130             0.0000000000
     16152       130  DOPC      C37            13.6440364944       19.8873526670       -5.9205080896  MEMB      130             0.0000000000
     16153       130  DOPC      H7X            13.6544626889       20.9713409048       -5.6772349184  MEMB      130             0.0000000000
     16154       130  DOPC      H7Y            12.7234051087       19.6044315134       -6.4743265513  MEMB      130             0.0000000000
     16155       130  DOPC      C38            13.5053183299       19.0743420035       -4.5669387603  MEMB      130             0.0000000000
     16156       130  DOPC      H8X            13.0915713232       18.0559012249       -4.7279130515  MEMB      130             0.0000000000
     16157       130  DOPC      H8Y            12.7985869434       19.6318412831       -3.9157503358  MEMB      130             0.0000000000
     16158       130  DOPC      C39            14.8697993947       19.0023622646       -3.9298053160  MEMB      130             0.0000000000
     16159       130  DOPC      H9X            15.5977391417       18.2132069985       -4.1692574953  MEMB      130             0.0000000000
     16160       130  DOPC      C310           15.3897965394       19.9747960506       -3.2139910644  MEMB      130             0.0000000000
     16161       130  DOPC      H10X           16.3147377765       19.7671040399       -2.6560047700  MEMB      130             0.0000000000
     16162       130  DOPC      C311           14.8324806409       21.2901026180       -2.8777593619  MEMB      130             0.0000000000
     16163       130  DOPC      H11X           14.4025336420       21.7823115225       -3.7761998728  MEMB      130             0.0000000000
     16164       130  DOPC      H11Y           15.7318852793       21.8666625468       -2.5728485291  MEMB      130             0.0000000000
     16165       130  DOPC      C312           13.8101942829       21.2354031437       -1.6693537367  MEMB      130             0.0000000000
     16166       130  DOPC      H12X           12.8493480749       20.8726746339       -2.0930556616  MEMB      130             0.0000000000
     16167       130  DOPC      H12Y           13.5976986679       22.2839354996       -1.3697767069  MEMB      130             0.0000000000
     16168       130  DOPC      C313           14.0808597318       20.2784898529       -0.4881894988  MEMB      130             0.0000000000
     16169       130  DOPC      H13X           14.3537796538       19.2450987388       -0.7914024455  MEMB      130             0.0000000000
     16170       130  DOPC      H13Y           15.0480332924       20.5557223925       -0.0169798366  MEMB      130             0.0000000000
     16171       130  DOPC      C314           12.9722294650       20.3167965227        0.5928312162  MEMB      130             0.0000000000
     16172       130  DOPC      H14X           12.5323685312       21.3313239742        0.7004303858  MEMB      130             0.0000000000
     16173       130  DOPC      H14Y           12.1003665536       19.7602182005        0.1873718481  MEMB      130             0.0000000000
     16174       130  DOPC      C315           13.2788316519       19.6643267961        1.9776158840  MEMB      130             0.0000000000
     16175       130  DOPC      H15X           12.2933534713       19.6044464578        2.4870950139  MEMB      130             0.0000000000
     16176       130  DOPC      H15Y           13.8921884955       20.4229920324        2.5091630163  MEMB      130             0.0000000000
     16177       130  DOPC      C316           14.0409441478       18.2537873146        2.1450068956  MEMB      130             0.0000000000
     16178       130  DOPC      H16X           15.0910122923       18.1584325663        1.7948834634  MEMB      130             0.0000000000
     16179       130  DOPC      H16Y           14.0422740984       18.0948065609        3.2445720060  MEMB      130             0.0000000000
     16180       130  DOPC      C317           13.4026262954       17.0641462341        1.3783023028  MEMB      130             0.0000000000
     16181       130  DOPC      H17X           13.1688511456       17.2353539269        0.3057533396  MEMB      130             0.0000000000
     16182       130  DOPC      H17Y           14.1273614730       16.2224152713        1.4021602352  MEMB      130             0.0000000000
     16183       130  DOPC      C318           12.1805886807       16.5795890868        2.2116044065  MEMB      130             0.0000000000
     16184       130  DOPC      H18X           11.9573073176       15.5328173415        1.9137196210  MEMB      130             0.0000000000
     16185       130  DOPC      H18Y           12.4155755339       16.5935039401        3.2973805470  MEMB      130             0.0000000000
     16186       130  DOPC      H18Z           11.2842052244       17.1556334078        1.8969761019  MEMB      130             0.0000000000
     16187       131  DOPE      N             -17.7702804552       12.7277380580      -18.1165474454  MEMB      131             0.0000000000
     16188       131  DOPE      HN1           -17.1429321056       13.4026648508      -17.6343565707  MEMB      131             0.0000000000
     16189       131  DOPE      HN2           -17.4020679573       11.7556452271      -18.0840657011  MEMB      131             0.0000000000
     16190       131  DOPE      HN3           -17.8359685062       13.0967691564      -19.0866511341  MEMB      131             0.0000000000
     16191       131  DOPE      C12           -19.0724967409       12.6188878334      -17.4016412646  MEMB      131             0.0000000000
     16192       131  DOPE      H12A          -19.2431927112       13.7112901301      -17.2928243829  MEMB      131             0.0000000000
     16193       131  DOPE      H12B          -18.8747438942       12.1798295456      -16.4004205952  MEMB      131             0.0000000000
     16194       131  DOPE      C11           -20.2066896949       11.8979043635      -18.1898400385  MEMB      131             0.0000000000
     16195       131  DOPE      H11A          -21.1253432181       11.8032182416      -17.5722388403  MEMB      131             0.0000000000
     16196       131  DOPE      H11B          -19.8307501307       10.9058838146      -18.5198183318  MEMB      131             0.0000000000
     16197       131  DOPE      P             -21.5328975572       13.5359685087      -19.7201041662  MEMB      131             0.0000000000
     16198       131  DOPE      O13           -22.9553703135       13.1400312970      -19.2692492326  MEMB      131             0.0000000000
     16199       131  DOPE      O14           -21.4297986803       13.9663780092      -21.0946673155  MEMB      131             0.0000000000
     16200       131  DOPE      O11           -21.2156578279       14.7815712708      -18.7752968835  MEMB      131             0.0000000000
     16201       131  DOPE      O12           -20.4522079476       12.5496814513      -19.4326536558  MEMB      131             0.0000000000
     16202       131  DOPE      C1            -20.1994922206       15.7066622729      -19.0100988174  MEMB      131             0.0000000000
     16203       131  DOPE      HA            -20.3626058217       16.0494815846      -20.0542204163  MEMB      131             0.0000000000
     16204       131  DOPE      HB            -19.1943785185       15.2343694898      -18.9783651590  MEMB      131             0.0000000000
     16205       131  DOPE      C2            -20.3156044099       16.9413621348      -18.0644260732  MEMB      131             0.0000000000
     16206       131  DOPE      HS            -19.5845365335       17.7385486229      -18.3181079773  MEMB      131             0.0000000000
     16207       131  DOPE      O21           -20.2265940811       16.6720234198      -16.6813529531  MEMB      131             0.0000000000
     16208       131  DOPE      C21           -19.0914471234       16.1009124986      -16.2780469114  MEMB      131             0.0000000000
     16209       131  DOPE      O22           -18.0676515449       15.8199395452      -16.8568067801  MEMB      131             0.0000000000
     16210       131  DOPE      C22           -19.2050615745       15.8979788778      -14.7439616255  MEMB      131             0.0000000000
     16211       131  DOPE      H2R           -20.1600259275       15.5433070687      -14.3005973577  MEMB      131             0.0000000000
     16212       131  DOPE      H2S           -18.8319745644       16.8397904149      -14.2877622981  MEMB      131             0.0000000000
     16213       131  DOPE      C3            -21.6427502924       17.7246515751      -18.1851165828  MEMB      131             0.0000000000
     16214       131  DOPE      HX            -21.6720411955       17.9069185242      -19.2806720940  MEMB      131             0.0000000000
     16215       131  DOPE      HY            -21.6842886475       18.7496586450      -17.7585541774  MEMB      131             0.0000000000
     16216       131  DOPE      O31           -22.7647590311       16.9635461563      -17.7032532722  MEMB      131             0.0000000000
     16217       131  DOPE      C31           -23.2816678611       17.3499290778      -16.5539281277  MEMB      131             0.0000000000
     16218       131  DOPE      O32           -23.0359554040       18.3654005668      -15.8793776443  MEMB      131             0.0000000000
     16219       131  DOPE      C32           -24.3794126013       16.2764848293      -16.1299549775  MEMB      131             0.0000000000
     16220       131  DOPE      H2X           -24.9678517015       16.7293055455      -15.3035085335  MEMB      131             0.0000000000
     16221       131  DOPE      H2Y           -24.9924490900       16.1273253847      -17.0444267497  MEMB      131             0.0000000000
     16222       131  DOPE      C23           -18.3302738890       14.6713441029      -14.3678165225  MEMB      131             0.0000000000
     16223       131  DOPE      H3R           -17.2773915885       14.7436811759      -14.7149870251  MEMB      131             0.0000000000
     16224       131  DOPE      H3S           -18.7934712006       13.7994398275      -14.8772788629  MEMB      131             0.0000000000
     16225       131  DOPE      C24           -18.4313055878       14.4326895022      -12.8275515125  MEMB      131             0.0000000000
     16226       131  DOPE      H4R           -19.4727487300       14.2357421139      -12.4944912475  MEMB      131             0.0000000000
     16227       131  DOPE      H4S           -18.0978742943       15.3383223310      -12.2771206958  MEMB      131             0.0000000000
     16228       131  DOPE      C25           -17.6224687668       13.1838652155      -12.3937624774  MEMB      131             0.0000000000
     16229       131  DOPE      H5R           -16.6044823963       13.2172501699      -12.8375081045  MEMB      131             0.0000000000
     16230       131  DOPE      H5S           -18.1599174005       12.2330510872      -12.5972871837  MEMB      131             0.0000000000
     16231       131  DOPE      C26           -17.4097740113       13.2478413842      -10.8318039448  MEMB      131             0.0000000000
     16232       131  DOPE      H6R           -18.3928104901       13.5904304688      -10.4437413526  MEMB      131             0.0000000000
     16233       131  DOPE      H6S           -16.6181807305       13.9672995402      -10.5316698620  MEMB      131             0.0000000000
     16234       131  DOPE      C27           -17.0597080335       11.8316322434      -10.3537735030  MEMB      131             0.0000000000
     16235       131  DOPE      H7R           -16.0846569083       11.4848480108      -10.7579225102  MEMB      131             0.0000000000
     16236       131  DOPE      H7S           -17.7515745442       11.0891024285      -10.8057590771  MEMB      131             0.0000000000
     16237       131  DOPE      C28           -17.1520490135       11.6817157656       -8.7387123847  MEMB      131             0.0000000000
     16238       131  DOPE      H8R           -17.1610436814       10.6077434545       -8.4544172318  MEMB      131             0.0000000000
     16239       131  DOPE      H8S           -18.1146369901       12.1248438527       -8.4049718314  MEMB      131             0.0000000000
     16240       131  DOPE      C29           -16.0557929896       12.4098153281       -8.0262091367  MEMB      131             0.0000000000
     16241       131  DOPE      H9R           -15.2018998353       11.7681098129       -7.7633783639  MEMB      131             0.0000000000
     16242       131  DOPE      C210          -16.0269828189       13.6695762205       -7.5496942607  MEMB      131             0.0000000000
     16243       131  DOPE      H10R          -15.0773330630       14.1219939712       -7.2280053877  MEMB      131             0.0000000000
     16244       131  DOPE      C211          -17.1257516384       14.6599637009       -7.6604903325  MEMB      131             0.0000000000
     16245       131  DOPE      H11R          -18.0273485273       14.1758417977       -8.0930066270  MEMB      131             0.0000000000
     16246       131  DOPE      H11S          -16.7550335905       15.4267806209       -8.3738493980  MEMB      131             0.0000000000
     16247       131  DOPE      C212          -17.5012798780       15.3642019073       -6.3592208544  MEMB      131             0.0000000000
     16248       131  DOPE      H12R          -17.6902581412       14.5751475654       -5.6002738787  MEMB      131             0.0000000000
     16249       131  DOPE      H12S          -18.4471937966       15.9242414884       -6.5202298216  MEMB      131             0.0000000000
     16250       131  DOPE      C213          -16.5459495890       16.3795834737       -5.8391162142  MEMB      131             0.0000000000
     16251       131  DOPE      H13R          -16.4517763128       17.0659473308       -6.7076530618  MEMB      131             0.0000000000
     16252       131  DOPE      H13S          -15.5588311783       15.9213737844       -5.6155937473  MEMB      131             0.0000000000
     16253       131  DOPE      C214          -17.0955971122       17.2886523034       -4.7018570270  MEMB      131             0.0000000000
     16254       131  DOPE      H14R          -17.6980272312       18.0276786750       -5.2721547777  MEMB      131             0.0000000000
     16255       131  DOPE      H14S          -16.3032520999       17.8692105947       -4.1827587821  MEMB      131             0.0000000000
     16256       131  DOPE      C215          -18.0013309946       16.4918369528       -3.6802975445  MEMB      131             0.0000000000
     16257       131  DOPE      H15R          -17.5360418191       15.5084214463       -3.4550859392  MEMB      131             0.0000000000
     16258       131  DOPE      H15S          -18.9987922605       16.3670418321       -4.1533922772  MEMB      131             0.0000000000
     16259       131  DOPE      C216          -18.3493168019       17.3040838641       -2.4079472423  MEMB      131             0.0000000000
     16260       131  DOPE      H16R          -18.8734622701       18.2725567260       -2.5550970016  MEMB      131             0.0000000000
     16261       131  DOPE      H16S          -17.3770046610       17.5274539404       -1.9190344192  MEMB      131             0.0000000000
     16262       131  DOPE      C217          -19.1496138393       16.6222275457       -1.3021946131  MEMB      131             0.0000000000
     16263       131  DOPE      H17R          -18.8641865027       17.2158072630       -0.4074800865  MEMB      131             0.0000000000
     16264       131  DOPE      H17S          -18.8367545926       15.5725091914       -1.1163688960  MEMB      131             0.0000000000
     16265       131  DOPE      C218          -20.6852934305       16.7955024253       -1.3666945977  MEMB      131             0.0000000000
     16266       131  DOPE      H18R          -20.9005729552       17.8833061345       -1.4349485910  MEMB      131             0.0000000000
     16267       131  DOPE      H18S          -21.2383318391       16.3395684834       -0.5178152359  MEMB      131             0.0000000000
     16268       131  DOPE      H18T          -21.1145992995       16.2970627395       -2.2620007786  MEMB      131             0.0000000000
     16269       131  DOPE      C33           -23.7547084903       14.9890204335      -15.5867391046  MEMB      131             0.0000000000
     16270       131  DOPE      H3X           -22.8799633051       15.1972358493      -14.9342149401  MEMB      131             0.0000000000
     16271       131  DOPE      H3Y           -23.3560976571       14.4456421217      -16.4700116607  MEMB      131             0.0000000000
     16272       131  DOPE      C34           -24.8038506863       14.1104696441      -14.8723494330  MEMB      131             0.0000000000
     16273       131  DOPE      H4X           -25.1217900512       14.6243761122      -13.9400751927  MEMB      131             0.0000000000
     16274       131  DOPE      H4Y           -25.7477191423       13.9975865998      -15.4474064440  MEMB      131             0.0000000000
     16275       131  DOPE      C35           -24.2118969380       12.7556138385      -14.5508113408  MEMB      131             0.0000000000
     16276       131  DOPE      H5X           -23.8666304004       12.2493109777      -15.4775091979  MEMB      131             0.0000000000
     16277       131  DOPE      H5Y           -25.0450084989       12.1100305821      -14.1994307024  MEMB      131             0.0000000000
     16278       131  DOPE      C36           -22.9529303278       12.6384381893      -13.6138455713  MEMB      131             0.0000000000
     16279       131  DOPE      H6X           -22.0147013411       12.6259340567      -14.2087328210  MEMB      131             0.0000000000
     16280       131  DOPE      H6Y           -23.0702783771       11.6951323834      -13.0387587430  MEMB      131             0.0000000000
     16281       131  DOPE      C37           -22.8208806593       13.7040310150      -12.4505335729  MEMB      131             0.0000000000
     16282       131  DOPE      H7X           -22.2020006705       14.5302683205      -12.8611915363  MEMB      131             0.0000000000
     16283       131  DOPE      H7Y           -23.8160656597       14.0770882562      -12.1268728077  MEMB      131             0.0000000000
     16284       131  DOPE      C38           -22.0298804924       13.1348796738      -11.2511261114  MEMB      131             0.0000000000
     16285       131  DOPE      H8X           -21.8455255039       14.0317173893      -10.6218273022  MEMB      131             0.0000000000
     16286       131  DOPE      H8Y           -21.1410072511       12.6828890960      -11.7409521653  MEMB      131             0.0000000000
     16287       131  DOPE      C39           -22.6939147332       12.0794317261      -10.4475971211  MEMB      131             0.0000000000
     16288       131  DOPE      H9X           -23.6052323900       11.7222527563      -10.9495175092  MEMB      131             0.0000000000
     16289       131  DOPE      C310          -22.3956936584       11.5484295673       -9.2481910452  MEMB      131             0.0000000000
     16290       131  DOPE      H10X          -22.9865075059       10.6714311305       -8.9451851478  MEMB      131             0.0000000000
     16291       131  DOPE      C311          -21.2564487202       11.8770058530       -8.3548963062  MEMB      131             0.0000000000
     16292       131  DOPE      H11X          -20.4193291015       11.1467499015       -8.3715700728  MEMB      131             0.0000000000
     16293       131  DOPE      H11Y          -20.7679352476       12.8508027248       -8.5726008703  MEMB      131             0.0000000000
     16294       131  DOPE      C312          -21.7109585854       12.0491275161       -6.8514692234  MEMB      131             0.0000000000
     16295       131  DOPE      H12X          -22.2035888713       11.1179270089       -6.4986207504  MEMB      131             0.0000000000
     16296       131  DOPE      H12Y          -22.3142839822       12.9737140172       -6.7271340372  MEMB      131             0.0000000000
     16297       131  DOPE      C313          -20.5149508451       12.1083656012       -5.8542153705  MEMB      131             0.0000000000
     16298       131  DOPE      H13X          -19.7037175919       11.3947613617       -6.1130409790  MEMB      131             0.0000000000
     16299       131  DOPE      H13Y          -20.2433581300       13.1322483858       -6.1892116386  MEMB      131             0.0000000000
     16300       131  DOPE      C314          -20.6912204358       12.3483057541       -4.2632249691  MEMB      131             0.0000000000
     16301       131  DOPE      H14X          -20.9639133660       11.4108245152       -3.7330472255  MEMB      131             0.0000000000
     16302       131  DOPE      H14Y          -21.4908619520       13.1172152591       -4.2026229940  MEMB      131             0.0000000000
     16303       131  DOPE      C315          -19.4520863057       13.0132490843       -3.5705057702  MEMB      131             0.0000000000
     16304       131  DOPE      H15X          -19.7889543548       13.2945609176       -2.5498672828  MEMB      131             0.0000000000
     16305       131  DOPE      H15Y          -19.2396956282       13.9858901035       -4.0636389893  MEMB      131             0.0000000000
     16306       131  DOPE      C316          -18.2078044994       12.1464807896       -3.5502529431  MEMB      131             0.0000000000
     16307       131  DOPE      H16X          -18.0101727695       11.8357696662       -4.5984525527  MEMB      131             0.0000000000
     16308       131  DOPE      H16Y          -18.3771949067       11.2125161881       -2.9728984776  MEMB      131             0.0000000000
     16309       131  DOPE      C317          -16.8981227147       12.6004581459       -2.8113009421  MEMB      131             0.0000000000
     16310       131  DOPE      H17X          -16.5724669766       13.5920367141       -3.1921440721  MEMB      131             0.0000000000
     16311       131  DOPE      H17Y          -16.9818621345       12.6873615358       -1.7068763491  MEMB      131             0.0000000000
     16312       131  DOPE      C318          -15.6215512376       11.7813501564       -3.1749469190  MEMB      131             0.0000000000
     16313       131  DOPE      H18X          -15.8198758642       10.6882090157       -3.1804773962  MEMB      131             0.0000000000
     16314       131  DOPE      H18Y          -15.2418917839       11.8617869790       -4.2159600921  MEMB      131             0.0000000000
     16315       131  DOPE      H18Z          -14.7712758925       12.0303844290       -2.5046228840  MEMB      131             0.0000000000
     16316       132  23SM      N             -20.5050170098      -14.9884288270      -27.7820319020  MEMB      132             0.0000000000
     16317       132  23SM      C15           -20.3839691073      -15.6326286050      -29.1452826567  MEMB      132             0.0000000000
     16318       132  23SM      H15A          -21.1994899585      -15.3446414845      -29.7921127704  MEMB      132             0.0000000000
     16319       132  23SM      H15B          -20.3375416688      -16.7048828323      -29.0248033239  MEMB      132             0.0000000000
     16320       132  23SM      H15C          -19.5528169925      -15.1084360853      -29.5933990483  MEMB      132             0.0000000000
     16321       132  23SM      C14           -19.4018023128      -15.5137662822      -26.9587409727  MEMB      132             0.0000000000
     16322       132  23SM      H14A          -19.4920704236      -16.5744619016      -26.7765966931  MEMB      132             0.0000000000
     16323       132  23SM      H14B          -19.4349405543      -14.8960862719      -26.0734312969  MEMB      132             0.0000000000
     16324       132  23SM      H14C          -18.4355940929      -15.1834044156      -27.3104549766  MEMB      132             0.0000000000
     16325       132  23SM      C13           -20.2504135243      -13.5807743068      -28.0323038501  MEMB      132             0.0000000000
     16326       132  23SM      H13A          -20.2979507870      -12.9888372596      -27.1302223712  MEMB      132             0.0000000000
     16327       132  23SM      H13B          -21.0425364640      -13.2332026038      -28.6789374556  MEMB      132             0.0000000000
     16328       132  23SM      H13C          -19.2167029657      -13.5057957757      -28.3359825488  MEMB      132             0.0000000000
     16329       132  23SM      C12           -21.9602645053      -15.2098645101      -27.1834746064  MEMB      132             0.0000000000
     16330       132  23SM      H12A          -22.2349076866      -16.2541472995      -27.1623949222  MEMB      132             0.0000000000
     16331       132  23SM      H12B          -22.5764602270      -14.8089307492      -27.9746477200  MEMB      132             0.0000000000
     16332       132  23SM      C11           -22.3364040236      -14.6277987350      -25.7557822544  MEMB      132             0.0000000000
     16333       132  23SM      H11A          -21.8274405338      -15.2122081514      -24.9597025357  MEMB      132             0.0000000000
     16334       132  23SM      H11B          -23.4060525347      -14.9054439386      -25.6413868936  MEMB      132             0.0000000000
     16335       132  23SM      P             -22.1018733698      -12.5826685354      -24.2088495138  MEMB      132             0.0000000000
     16336       132  23SM      O13           -20.8705954673      -13.1635027062      -23.5626442209  MEMB      132             0.0000000000
     16337       132  23SM      O14           -22.0975011182      -11.0988273641      -24.2364470985  MEMB      132             0.0000000000
     16338       132  23SM      O11           -23.3628264784      -13.1084192813      -23.4742402070  MEMB      132             0.0000000000
     16339       132  23SM      O12           -22.1230531779      -13.2290996471      -25.6602027171  MEMB      132             0.0000000000
     16340       132  23SM      C1S           -23.2647074643      -14.0421057512      -22.4809485046  MEMB      132             0.0000000000
     16341       132  23SM      H1S           -22.5003088263      -14.8367996166      -22.6168799980  MEMB      132             0.0000000000
     16342       132  23SM      H1T           -24.2433361724      -14.5621148050      -22.4022250813  MEMB      132             0.0000000000
     16343       132  23SM      NF            -22.6677201505      -14.3518156410      -20.1470504298  MEMB      132             0.0000000000
     16344       132  23SM      HNF           -23.3116198603      -14.5664810091      -19.4167619463  MEMB      132             0.0000000000
     16345       132  23SM      C2S           -22.9778684681      -13.3890950011      -21.1247363330  MEMB      132             0.0000000000
     16346       132  23SM      H2S           -22.1721264450      -12.6293494135      -21.2135478799  MEMB      132             0.0000000000
     16347       132  23SM      C3S           -24.3127488218      -12.6176918525      -20.7729819476  MEMB      132             0.0000000000
     16348       132  23SM      H3S           -25.1789370970      -13.3069095094      -20.8679447795  MEMB      132             0.0000000000
     16349       132  23SM      O3            -24.5779534777      -11.4683089989      -21.5211051400  MEMB      132             0.0000000000
     16350       132  23SM      HO3           -23.7856179006      -11.3998618294      -22.0588035722  MEMB      132             0.0000000000
     16351       132  23SM      C4S           -24.3285894802      -12.1454116620      -19.3194245696  MEMB      132             0.0000000000
     16352       132  23SM      H4S           -24.0453304765      -11.0955500509      -19.1534272233  MEMB      132             0.0000000000
     16353       132  23SM      C5S           -24.9332919898      -12.8188629928      -18.2900071219  MEMB      132             0.0000000000
     16354       132  23SM      H5S           -25.4208077873      -13.7480985882      -18.6199310072  MEMB      132             0.0000000000
     16355       132  23SM      C6S           -24.9283657426      -12.4730984768      -16.8476789708  MEMB      132             0.0000000000
     16356       132  23SM      H6S           -25.9242163844      -12.4078468749      -16.3594724129  MEMB      132             0.0000000000
     16357       132  23SM      H6T           -24.4232549615      -11.4852763009      -16.7894434177  MEMB      132             0.0000000000
     16358       132  23SM      C7S           -24.0376744326      -13.5472985723      -16.2183192438  MEMB      132             0.0000000000
     16359       132  23SM      H7S           -23.0147849488      -13.4454538519      -16.6398000048  MEMB      132             0.0000000000
     16360       132  23SM      H7T           -24.4955119428      -14.5561834750      -16.3011259690  MEMB      132             0.0000000000
     16361       132  23SM      C8S           -24.0414368253      -13.2867617072      -14.6371090146  MEMB      132             0.0000000000
     16362       132  23SM      H8S           -23.8529530515      -12.2074723891      -14.4529102086  MEMB      132             0.0000000000
     16363       132  23SM      H8T           -23.1652237712      -13.7159916218      -14.1057583148  MEMB      132             0.0000000000
     16364       132  23SM      C9S           -25.3154902566      -13.7131866120      -13.9239426300  MEMB      132             0.0000000000
     16365       132  23SM      H9S           -25.3289918112      -14.8218790731      -13.8536584579  MEMB      132             0.0000000000
     16366       132  23SM      H9T           -26.1421581753      -13.4211722568      -14.6063417935  MEMB      132             0.0000000000
     16367       132  23SM      C10S          -25.3631943208      -13.0953969857      -12.5184142827  MEMB      132             0.0000000000
     16368       132  23SM      H10S          -26.3405034306      -13.3844657913      -12.0761177221  MEMB      132             0.0000000000
     16369       132  23SM      H10T          -25.2158656020      -11.9945690367      -12.5465755328  MEMB      132             0.0000000000
     16370       132  23SM      C11S          -24.3058572115      -13.8409027912      -11.6428349336  MEMB      132             0.0000000000
     16371       132  23SM      H11S          -23.2957530680      -13.4483273347      -11.8875686296  MEMB      132             0.0000000000
     16372       132  23SM      H11T          -24.2800906569      -14.9397479576      -11.8046875992  MEMB      132             0.0000000000
     16373       132  23SM      C12S          -24.5986339602      -13.4833344133      -10.1006667519  MEMB      132             0.0000000000
     16374       132  23SM      H12S          -25.6847732328      -13.7080652590      -10.0364888622  MEMB      132             0.0000000000
     16375       132  23SM      H12T          -24.4395657297      -12.3840384104      -10.0768628587  MEMB      132             0.0000000000
     16376       132  23SM      C13S          -23.8342150538      -14.2895660437       -9.1029910505  MEMB      132             0.0000000000
     16377       132  23SM      H13S          -22.7261856731      -14.2104025625       -9.1210086524  MEMB      132             0.0000000000
     16378       132  23SM      H13T          -24.0992688170      -15.3605425024       -9.2336699019  MEMB      132             0.0000000000
     16379       132  23SM      C14S          -24.3126242444      -13.8931720513       -7.6364573086  MEMB      132             0.0000000000
     16380       132  23SM      H14S          -25.4184105484      -13.8975798720       -7.7438741281  MEMB      132             0.0000000000
     16381       132  23SM      H14T          -23.9955966393      -12.8363006301       -7.5066982505  MEMB      132             0.0000000000
     16382       132  23SM      C15S          -23.6933022763      -14.6836735896       -6.4804439041  MEMB      132             0.0000000000
     16383       132  23SM      H15S          -22.5892920648      -14.5992367074       -6.3890507073  MEMB      132             0.0000000000
     16384       132  23SM      H15T          -23.8148683096      -15.7877845027       -6.5023852521  MEMB      132             0.0000000000
     16385       132  23SM      C16S          -24.1731857358      -14.0571321630       -5.1182280357  MEMB      132             0.0000000000
     16386       132  23SM      H16S          -25.1027871302      -14.5808021545       -4.8084987209  MEMB      132             0.0000000000
     16387       132  23SM      H16T          -24.4835688704      -13.0307791159       -5.4090581814  MEMB      132             0.0000000000
     16388       132  23SM      C17S          -23.2541566950      -14.3154520493       -3.8818064733  MEMB      132             0.0000000000
     16389       132  23SM      H17S          -22.2001501080      -14.1143837961       -4.1698376883  MEMB      132             0.0000000000
     16390       132  23SM      H17T          -23.3871588991      -15.3583676631       -3.5226971485  MEMB      132             0.0000000000
     16391       132  23SM      C18S          -23.5343846135      -13.4162568906       -2.6381694944  MEMB      132             0.0000000000
     16392       132  23SM      H18S          -24.6241869624      -13.3574787382       -2.4303302093  MEMB      132             0.0000000000
     16393       132  23SM      H18T          -23.1740658260      -12.3720834308       -2.7572995139  MEMB      132             0.0000000000
     16394       132  23SM      H18U          -22.9687006440      -13.8522766289       -1.7871644072  MEMB      132             0.0000000000
     16395       132  23SM      C1F           -21.4757729382      -15.0251190046      -20.0632208870  MEMB      132             0.0000000000
     16396       132  23SM      OF            -20.5453258888      -14.8178441430      -20.8054926753  MEMB      132             0.0000000000
     16397       132  23SM      C2F           -21.3254977452      -16.1521249183      -18.9714912460  MEMB      132             0.0000000000
     16398       132  23SM      H2F           -21.3558665084      -17.0720855569      -19.5936414158  MEMB      132             0.0000000000
     16399       132  23SM      H2G           -22.3250403534      -15.9388444852      -18.5358913799  MEMB      132             0.0000000000
     16400       132  23SM      C3F           -20.2098238249      -15.9123841771      -17.9209019469  MEMB      132             0.0000000000
     16401       132  23SM      H3F           -20.5149873460      -14.8885497023      -17.6160099914  MEMB      132             0.0000000000
     16402       132  23SM      H3G           -19.2267229932      -15.9828680435      -18.4336062610  MEMB      132             0.0000000000
     16403       132  23SM      C4F           -20.1697062220      -16.9160734663      -16.7642387677  MEMB      132             0.0000000000
     16404       132  23SM      H4F           -19.9632143575      -17.9319569389      -17.1638168899  MEMB      132             0.0000000000
     16405       132  23SM      H4G           -21.2096168271      -17.0277844944      -16.3895018753  MEMB      132             0.0000000000
     16406       132  23SM      C5F           -19.1597900606      -16.5509887427      -15.7010857857  MEMB      132             0.0000000000
     16407       132  23SM      H5F           -18.1792115710      -16.3491398569      -16.1827946735  MEMB      132             0.0000000000
     16408       132  23SM      H5G           -18.9555509745      -17.4564200912      -15.0905103404  MEMB      132             0.0000000000
     16409       132  23SM      C6F           -19.4915175983      -15.4572213558      -14.6324863589  MEMB      132             0.0000000000
     16410       132  23SM      H6F           -20.4225922555      -15.7569985212      -14.1056525013  MEMB      132             0.0000000000
     16411       132  23SM      H6G           -19.6684467565      -14.4970348149      -15.1626367558  MEMB      132             0.0000000000
     16412       132  23SM      C7F           -18.4514542261      -15.3660182970      -13.5103380013  MEMB      132             0.0000000000
     16413       132  23SM      H7F           -17.9397752937      -14.3817564433      -13.4492293055  MEMB      132             0.0000000000
     16414       132  23SM      H7G           -17.6403964886      -16.0849997536      -13.7544117067  MEMB      132             0.0000000000
     16415       132  23SM      C8F           -18.8458322878      -15.7890429563      -12.0937582491  MEMB      132             0.0000000000
     16416       132  23SM      H8F           -19.6158425201      -15.0574872941      -11.7678263419  MEMB      132             0.0000000000
     16417       132  23SM      H8G           -17.8924237288      -15.7545259327      -11.5244231755  MEMB      132             0.0000000000
     16418       132  23SM      C9F           -19.3384864514      -17.2008729661      -11.8406226733  MEMB      132             0.0000000000
     16419       132  23SM      H9F           -18.5688375670      -17.8909770278      -12.2477075942  MEMB      132             0.0000000000
     16420       132  23SM      H9G           -20.2346182540      -17.3363271723      -12.4832121514  MEMB      132             0.0000000000
     16421       132  23SM      C10F          -19.6627609752      -17.3911453765      -10.3601294315  MEMB      132             0.0000000000
     16422       132  23SM      H10F          -19.7809069206      -16.3904333556       -9.8922219012  MEMB      132             0.0000000000
     16423       132  23SM      H10G          -18.7331090533      -17.7208672766       -9.8489042587  MEMB      132             0.0000000000
     16424       132  23SM      C11F          -20.9117303881      -18.3161022499      -10.1457754517  MEMB      132             0.0000000000
     16425       132  23SM      H11F          -20.6604093194      -19.1679223899      -10.8132788428  MEMB      132             0.0000000000
     16426       132  23SM      H11G          -21.7354986351      -17.6877819588      -10.5469498548  MEMB      132             0.0000000000
     16427       132  23SM      C12F          -21.2746636621      -18.8702558433       -8.7703411531  MEMB      132             0.0000000000
     16428       132  23SM      H12F          -20.4762327873      -19.5882039029       -8.4850692702  MEMB      132             0.0000000000
     16429       132  23SM      H12G          -22.3140188929      -19.2622199946       -8.7497070283  MEMB      132             0.0000000000
     16430       132  23SM      C13F          -21.2718474659      -17.7841060012       -7.6341736766  MEMB      132             0.0000000000
     16431       132  23SM      H13F          -22.2570857551      -17.2759278333       -7.7075351753  MEMB      132             0.0000000000
     16432       132  23SM      H13G          -20.3668935086      -17.2271394666       -7.9584690355  MEMB      132             0.0000000000
     16433       132  23SM      C14F          -20.9924023982      -18.5276414944       -6.2316101457  MEMB      132             0.0000000000
     16434       132  23SM      H14F          -20.1367187367      -19.2344666288       -6.2818553761  MEMB      132             0.0000000000
     16435       132  23SM      H14G          -21.8176403614      -19.2702967258       -6.1895753383  MEMB      132             0.0000000000
     16436       132  23SM      C15F          -21.0817626317      -17.7373367686       -4.9167742423  MEMB      132             0.0000000000
     16437       132  23SM      H15F          -22.1399445621      -17.4840894795       -4.6921890181  MEMB      132             0.0000000000
     16438       132  23SM      H15G          -20.5533407300      -16.7692591564       -5.0506261659  MEMB      132             0.0000000000
     16439       132  23SM      C16F          -20.4791734543      -18.3942515072       -3.6473597148  MEMB      132             0.0000000000
     16440       132  23SM      H16F          -19.3887848156      -18.5744536055       -3.7609420337  MEMB      132             0.0000000000
     16441       132  23SM      H16G          -21.0160661543      -19.3558887339       -3.5013425953  MEMB      132             0.0000000000
     16442       132  23SM      C17F          -20.7075709746      -17.5709263343       -2.4131239692  MEMB      132             0.0000000000
     16443       132  23SM      H17F          -20.6935844753      -16.4833813052       -2.6397753182  MEMB      132             0.0000000000
     16444       132  23SM      H17G          -19.8494047164      -17.9078244638       -1.7931476926  MEMB      132             0.0000000000
     16445       132  23SM      C18F          -22.0615972324      -17.9043901347       -1.7175555502  MEMB      132             0.0000000000
     16446       132  23SM      H18F          -22.1953500737      -19.0065249231       -1.7591449201  MEMB      132             0.0000000000
     16447       132  23SM      H18G          -22.8204609517      -17.3590188378       -2.3184032922  MEMB      132             0.0000000000
     16448       132  23SM      C19F          -22.3042384123      -17.4866831858       -0.2650420910  MEMB      132             0.0000000000
     16449       132  23SM      H19F          -21.8966554386      -18.2479768092        0.4339777487  MEMB      132             0.0000000000
     16450       132  23SM      H19G          -23.3732398616      -17.4190388896        0.0298848361  MEMB      132             0.0000000000
     16451       132  23SM      C20F          -21.6336818496      -16.1294175624        0.0085099225  MEMB      132             0.0000000000
     16452       132  23SM      H20F          -21.4538232134      -15.5417323849       -0.9170151492  MEMB      132             0.0000000000
     16453       132  23SM      H20G          -20.6816156430      -16.4520093149        0.4816118420  MEMB      132             0.0000000000
     16454       132  23SM      C21F          -22.3693383257      -15.1950724047        0.9678953694  MEMB      132             0.0000000000
     16455       132  23SM      H21F          -22.5505562071      -15.6944658614        1.9436462304  MEMB      132             0.0000000000
     16456       132  23SM      H21G          -23.2833901879      -14.7855228967        0.4871674077  MEMB      132             0.0000000000
     16457       132  23SM      C22F          -21.4300375931      -14.0458657981        1.5260485373  MEMB      132             0.0000000000
     16458       132  23SM      H22F          -21.9908334963      -13.5941259490        2.3720751029  MEMB      132             0.0000000000
     16459       132  23SM      H22G          -21.3325993269      -13.3710775835        0.6488449935  MEMB      132             0.0000000000
     16460       132  23SM      C23F          -20.1342952070      -14.5504390136        2.1718830617  MEMB      132             0.0000000000
     16461       132  23SM      H23F          -19.7014664792      -13.7107815692        2.7566528042  MEMB      132             0.0000000000
     16462       132  23SM      H23G          -19.4191893638      -14.7529691348        1.3460959630  MEMB      132             0.0000000000
     16463       132  23SM      H23H          -20.4132540225      -15.3304620829        2.9121979209  MEMB      132             0.0000000000
     16464       133  DOPE      N             -22.2260308136        6.6742930342      -20.5501687180  MEMB      133             0.0000000000
     16465       133  DOPE      HN1           -22.5676473763        5.7546464067      -20.2049903477  MEMB      133             0.0000000000
     16466       133  DOPE      HN2           -22.5306179878        7.0065818617      -21.4874043196  MEMB      133             0.0000000000
     16467       133  DOPE      HN3           -21.1943713907        6.7480989210      -20.6589423171  MEMB      133             0.0000000000
     16468       133  DOPE      C12           -22.8804498601        7.7007252647      -19.6211888274  MEMB      133             0.0000000000
     16469       133  DOPE      H12A          -22.5680301226        8.7203401913      -19.9327982349  MEMB      133             0.0000000000
     16470       133  DOPE      H12B          -22.3972885573        7.4952232315      -18.6420845943  MEMB      133             0.0000000000
     16471       133  DOPE      C11           -24.3815300546        7.6978352236      -19.5034156942  MEMB      133             0.0000000000
     16472       133  DOPE      H11A          -24.8071951267        7.9968966859      -20.4850941319  MEMB      133             0.0000000000
     16473       133  DOPE      H11B          -24.6858573592        8.4259517148      -18.7213976057  MEMB      133             0.0000000000
     16474       133  DOPE      P             -26.0832862925        5.9549405732      -18.4358849869  MEMB      133             0.0000000000
     16475       133  DOPE      O13           -25.4614756649        5.3849901333      -17.2510940895  MEMB      133             0.0000000000
     16476       133  DOPE      O14           -26.9610100418        4.9986966586      -19.2267025671  MEMB      133             0.0000000000
     16477       133  DOPE      O11           -26.8425851321        7.2782395382      -18.0822804008  MEMB      133             0.0000000000
     16478       133  DOPE      O12           -24.8441201435        6.3742204534      -19.3292647160  MEMB      133             0.0000000000
     16479       133  DOPE      C1            -27.4634137119        8.1634510846      -18.9948886033  MEMB      133             0.0000000000
     16480       133  DOPE      HA            -27.9162027263        7.5111159331      -19.7719099003  MEMB      133             0.0000000000
     16481       133  DOPE      HB            -26.6380549168        8.7216063428      -19.4863827722  MEMB      133             0.0000000000
     16482       133  DOPE      C2            -28.5519099672        8.8822192497      -18.1292800414  MEMB      133             0.0000000000
     16483       133  DOPE      HS            -29.0262487383        9.5553643700      -18.8750678147  MEMB      133             0.0000000000
     16484       133  DOPE      O21           -27.9140906595        9.5669459377      -17.0555461827  MEMB      133             0.0000000000
     16485       133  DOPE      C21           -27.1139781512       10.5530035357      -17.3432170593  MEMB      133             0.0000000000
     16486       133  DOPE      O22           -27.1367087910       11.3018048572      -18.3153954969  MEMB      133             0.0000000000
     16487       133  DOPE      C22           -26.0781417526       10.6847859207      -16.2316399886  MEMB      133             0.0000000000
     16488       133  DOPE      H2R           -26.5773228327       10.7837993807      -15.2440491416  MEMB      133             0.0000000000
     16489       133  DOPE      H2S           -25.5885268670       11.6514769311      -16.4768052137  MEMB      133             0.0000000000
     16490       133  DOPE      C3            -29.6141681163        8.0161665733      -17.6189811009  MEMB      133             0.0000000000
     16491       133  DOPE      HX            -30.0924447726        7.4624660333      -18.4550361201  MEMB      133             0.0000000000
     16492       133  DOPE      HY            -30.4826916878        8.5705384958      -17.2034584413  MEMB      133             0.0000000000
     16493       133  DOPE      O31           -29.1464919240        6.9140025775      -16.7701970434  MEMB      133             0.0000000000
     16494       133  DOPE      C31           -29.2628216233        7.1030817450      -15.5100334950  MEMB      133             0.0000000000
     16495       133  DOPE      O32           -29.7592541830        8.1257600704      -15.0223584092  MEMB      133             0.0000000000
     16496       133  DOPE      C32           -28.5445648605        5.8884899138      -14.8590511473  MEMB      133             0.0000000000
     16497       133  DOPE      H2X           -29.3160449086        5.3354092098      -14.2817807443  MEMB      133             0.0000000000
     16498       133  DOPE      H2Y           -28.0196965172        5.1857524966      -15.5409563630  MEMB      133             0.0000000000
     16499       133  DOPE      C23           -25.1053377607        9.5092137825      -16.2837089198  MEMB      133             0.0000000000
     16500       133  DOPE      H3R           -24.4074484620        9.6402470006      -17.1381688657  MEMB      133             0.0000000000
     16501       133  DOPE      H3S           -25.7061642424        8.5863591301      -16.4309089463  MEMB      133             0.0000000000
     16502       133  DOPE      C24           -24.3586070061        9.2278935591      -14.9608058088  MEMB      133             0.0000000000
     16503       133  DOPE      H4R           -25.2162708494        8.9668094487      -14.3046288002  MEMB      133             0.0000000000
     16504       133  DOPE      H4S           -23.8482675655       10.1764107082      -14.6884270823  MEMB      133             0.0000000000
     16505       133  DOPE      C25           -23.2795675552        8.1380941565      -14.9092836816  MEMB      133             0.0000000000
     16506       133  DOPE      H5R           -22.6315661267        8.2582529241      -15.8036980363  MEMB      133             0.0000000000
     16507       133  DOPE      H5S           -23.7155351417        7.1380738857      -15.1195522971  MEMB      133             0.0000000000
     16508       133  DOPE      C26           -22.3407226375        7.9392924522      -13.7387127179  MEMB      133             0.0000000000
     16509       133  DOPE      H6R           -21.5680963647        8.7308546964      -13.8426318318  MEMB      133             0.0000000000
     16510       133  DOPE      H6S           -21.8090756882        6.9660891034      -13.8061490157  MEMB      133             0.0000000000
     16511       133  DOPE      C27           -22.9328008491        8.0947834147      -12.3226853500  MEMB      133             0.0000000000
     16512       133  DOPE      H7R           -23.6866121244        7.3075458021      -12.1074037944  MEMB      133             0.0000000000
     16513       133  DOPE      H7S           -23.5830246141        8.9940611536      -12.3758790899  MEMB      133             0.0000000000
     16514       133  DOPE      C28           -21.9935867492        8.1561471295      -11.1211897969  MEMB      133             0.0000000000
     16515       133  DOPE      H8R           -22.7319804939        8.4460559175      -10.3433413998  MEMB      133             0.0000000000
     16516       133  DOPE      H8S           -21.2146197445        8.9455948198      -11.1867900088  MEMB      133             0.0000000000
     16517       133  DOPE      C29           -21.2978531009        6.8675169684      -11.0802318919  MEMB      133             0.0000000000
     16518       133  DOPE      H9R           -20.4478115485        6.7574610104      -11.7696646891  MEMB      133             0.0000000000
     16519       133  DOPE      C210          -21.5877971543        5.8785565302      -10.2099897608  MEMB      133             0.0000000000
     16520       133  DOPE      H10R          -21.1201754066        4.8923274134      -10.3466726846  MEMB      133             0.0000000000
     16521       133  DOPE      C211          -22.6107485998        5.7531920883       -9.1094084709  MEMB      133             0.0000000000
     16522       133  DOPE      H11R          -23.3467278519        4.9710660446       -9.3938984604  MEMB      133             0.0000000000
     16523       133  DOPE      H11S          -23.2007486708        6.6941148970       -9.1391596594  MEMB      133             0.0000000000
     16524       133  DOPE      C212          -22.0763267345        5.3334810121       -7.7753240226  MEMB      133             0.0000000000
     16525       133  DOPE      H12R          -21.3732690017        6.0491046622       -7.2979216614  MEMB      133             0.0000000000
     16526       133  DOPE      H12S          -21.5108068846        4.3791392452       -7.8364784652  MEMB      133             0.0000000000
     16527       133  DOPE      C213          -23.2520844207        5.1108196176       -6.7392839849  MEMB      133             0.0000000000
     16528       133  DOPE      H13R          -23.6616261798        4.1006159468       -6.9539583154  MEMB      133             0.0000000000
     16529       133  DOPE      H13S          -23.9784684534        5.9170714070       -6.9772870925  MEMB      133             0.0000000000
     16530       133  DOPE      C214          -22.8972675707        5.0739890380       -5.1889634395  MEMB      133             0.0000000000
     16531       133  DOPE      H14R          -22.6922518116        6.1076062311       -4.8369330216  MEMB      133             0.0000000000
     16532       133  DOPE      H14S          -22.1410404042        4.3208149885       -4.8804671409  MEMB      133             0.0000000000
     16533       133  DOPE      C215          -24.1292697428        4.6375518201       -4.4151959385  MEMB      133             0.0000000000
     16534       133  DOPE      H15R          -24.5070833848        3.6590357023       -4.7813707920  MEMB      133             0.0000000000
     16535       133  DOPE      H15S          -24.8601198051        5.4478598937       -4.6239550058  MEMB      133             0.0000000000
     16536       133  DOPE      C216          -23.9145431362        4.5267779821       -2.9336721563  MEMB      133             0.0000000000
     16537       133  DOPE      H16R          -23.0030120235        3.9314086854       -2.7123858299  MEMB      133             0.0000000000
     16538       133  DOPE      H16S          -24.7705229397        3.9270389809       -2.5569324535  MEMB      133             0.0000000000
     16539       133  DOPE      C217          -23.6641310447        5.8232205956       -2.1732145555  MEMB      133             0.0000000000
     16540       133  DOPE      H17R          -24.2173911509        6.5987909327       -2.7448048057  MEMB      133             0.0000000000
     16541       133  DOPE      H17S          -22.5889241103        6.0638068306       -2.0304934614  MEMB      133             0.0000000000
     16542       133  DOPE      C218          -24.3566653532        5.8267435992       -0.7170858830  MEMB      133             0.0000000000
     16543       133  DOPE      H18R          -23.9684562212        5.0046205028       -0.0785489931  MEMB      133             0.0000000000
     16544       133  DOPE      H18S          -25.4512924337        5.6875086905       -0.8464160439  MEMB      133             0.0000000000
     16545       133  DOPE      H18T          -24.1460564782        6.8072193049       -0.2389304224  MEMB      133             0.0000000000
     16546       133  DOPE      C33           -27.3124879797        6.3982854181      -14.0673798061  MEMB      133             0.0000000000
     16547       133  DOPE      H3X           -26.5649703173        6.8624160824      -14.7457015619  MEMB      133             0.0000000000
     16548       133  DOPE      H3Y           -26.7218394017        5.5410439131      -13.6793174673  MEMB      133             0.0000000000
     16549       133  DOPE      C34           -27.5985196110        7.5053340940      -12.9438931343  MEMB      133             0.0000000000
     16550       133  DOPE      H4X           -26.5439691278        7.6099955499      -12.6102913397  MEMB      133             0.0000000000
     16551       133  DOPE      H4Y           -27.8338509500        8.4600960653      -13.4609715886  MEMB      133             0.0000000000
     16552       133  DOPE      C35           -28.6454250487        7.1620551534      -11.8444655010  MEMB      133             0.0000000000
     16553       133  DOPE      H5X           -28.2021400485        6.2875813468      -11.3218614770  MEMB      133             0.0000000000
     16554       133  DOPE      H5Y           -29.5533663414        6.7476630268      -12.3325663414  MEMB      133             0.0000000000
     16555       133  DOPE      C36           -28.9966723179        8.2099891206      -10.8508904525  MEMB      133             0.0000000000
     16556       133  DOPE      H6X           -29.6410907383        7.8218678296      -10.0333280735  MEMB      133             0.0000000000
     16557       133  DOPE      H6Y           -29.7357402798        8.8582862526      -11.3683940507  MEMB      133             0.0000000000
     16558       133  DOPE      C37           -27.8333242894        9.1372629825      -10.4559121829  MEMB      133             0.0000000000
     16559       133  DOPE      H7X           -27.4370976094        9.5890857151      -11.3903534919  MEMB      133             0.0000000000
     16560       133  DOPE      H7Y           -28.2558331115        9.9466967360       -9.8229631588  MEMB      133             0.0000000000
     16561       133  DOPE      C38           -26.7460579407        8.4181581387       -9.5932075019  MEMB      133             0.0000000000
     16562       133  DOPE      H8X           -26.3320363746        9.2000891024       -8.9212766409  MEMB      133             0.0000000000
     16563       133  DOPE      H8Y           -25.9763699625        8.1003940237      -10.3286857835  MEMB      133             0.0000000000
     16564       133  DOPE      C39           -27.1921669301        7.1311618860       -8.8949619459  MEMB      133             0.0000000000
     16565       133  DOPE      H9X           -27.4913249467        6.4242243887       -9.6828349274  MEMB      133             0.0000000000
     16566       133  DOPE      C310          -27.1867040715        6.7288066398       -7.6215972988  MEMB      133             0.0000000000
     16567       133  DOPE      H10X          -27.5804154541        5.7139107958       -7.4635523520  MEMB      133             0.0000000000
     16568       133  DOPE      C311          -26.7493605166        7.4023555100       -6.3434869956  MEMB      133             0.0000000000
     16569       133  DOPE      H11X          -26.4090965975        6.5736826587       -5.6863400985  MEMB      133             0.0000000000
     16570       133  DOPE      H11Y          -25.8567718901        8.0588530154       -6.4248358187  MEMB      133             0.0000000000
     16571       133  DOPE      C312          -27.7600072306        8.1553029729       -5.5861751971  MEMB      133             0.0000000000
     16572       133  DOPE      H12X          -28.6728143699        7.5541629369       -5.3868410499  MEMB      133             0.0000000000
     16573       133  DOPE      H12Y          -28.1513150729        8.9928740699       -6.2023525872  MEMB      133             0.0000000000
     16574       133  DOPE      C313          -27.2888404240        8.6768129467       -4.2599814021  MEMB      133             0.0000000000
     16575       133  DOPE      H13X          -26.2877307378        9.1148993673       -4.4604334034  MEMB      133             0.0000000000
     16576       133  DOPE      H13Y          -28.0264155987        9.4132125194       -3.8752489022  MEMB      133             0.0000000000
     16577       133  DOPE      C314          -27.1657758872        7.5345998441       -3.1649157435  MEMB      133             0.0000000000
     16578       133  DOPE      H14X          -26.9952985355        8.2037800492       -2.2945953097  MEMB      133             0.0000000000
     16579       133  DOPE      H14Y          -26.2352505144        6.9540938016       -3.3422754059  MEMB      133             0.0000000000
     16580       133  DOPE      C315          -28.4236539141        6.7977620618       -2.9162597605  MEMB      133             0.0000000000
     16581       133  DOPE      H15X          -28.5556096945        6.2116919244       -3.8508356262  MEMB      133             0.0000000000
     16582       133  DOPE      H15Y          -29.3251286281        7.4466417343       -2.8913727226  MEMB      133             0.0000000000
     16583       133  DOPE      C316          -28.5006257274        5.8100753072       -1.8447603821  MEMB      133             0.0000000000
     16584       133  DOPE      H16X          -29.2285069569        6.0695679654       -1.0465276548  MEMB      133             0.0000000000
     16585       133  DOPE      H16Y          -27.5012556535        5.6431427155       -1.3890030497  MEMB      133             0.0000000000
     16586       133  DOPE      C317          -28.8950376081        4.4092018967       -2.2871946556  MEMB      133             0.0000000000
     16587       133  DOPE      H17X          -29.7987981003        4.3678950679       -2.9320461601  MEMB      133             0.0000000000
     16588       133  DOPE      H17Y          -28.0607058221        3.8857408204       -2.8011996545  MEMB      133             0.0000000000
     16589       133  DOPE      C318          -29.1717755540        3.5448767807       -1.0457845916  MEMB      133             0.0000000000
     16590       133  DOPE      H18X          -29.4291468316        2.5311863768       -1.4206351363  MEMB      133             0.0000000000
     16591       133  DOPE      H18Y          -28.2501426378        3.5201820684       -0.4258620054  MEMB      133             0.0000000000
     16592       133  DOPE      H18Z          -30.1099882930        3.8279293945       -0.5223752510  MEMB      133             0.0000000000
     16593       134  23SM      N              22.5850853598      -12.0741073007      -27.6371209529  MEMB      134             0.0000000000
     16594       134  23SM      C15            22.0234970433      -11.0184020712      -28.4949566805  MEMB      134             0.0000000000
     16595       134  23SM      H15A           20.9508770723      -10.9230655308      -28.4125112796  MEMB      134             0.0000000000
     16596       134  23SM      H15B           22.4518897449      -11.1981938617      -29.4699207417  MEMB      134             0.0000000000
     16597       134  23SM      H15C           22.4908927400      -10.1247163327      -28.1086062973  MEMB      134             0.0000000000
     16598       134  23SM      C14            21.8710489247      -13.3719605498      -27.9568870446  MEMB      134             0.0000000000
     16599       134  23SM      H14A           20.8639344141      -13.1815597729      -27.6164934238  MEMB      134             0.0000000000
     16600       134  23SM      H14B           22.3348051109      -14.2059443185      -27.4511191149  MEMB      134             0.0000000000
     16601       134  23SM      H14C           21.8354896989      -13.5399596964      -29.0231476802  MEMB      134             0.0000000000
     16602       134  23SM      C13            24.0586553986      -12.2701294698      -27.9518842336  MEMB      134             0.0000000000
     16603       134  23SM      H13A           24.4821699732      -13.1218822510      -27.4404619274  MEMB      134             0.0000000000
     16604       134  23SM      H13B           24.5899334759      -11.4644760408      -27.4670481987  MEMB      134             0.0000000000
     16605       134  23SM      H13C           24.3547895499      -12.2592833272      -28.9904345587  MEMB      134             0.0000000000
     16606       134  23SM      C12            22.4341945756      -11.6319430714      -26.1971053381  MEMB      134             0.0000000000
     16607       134  23SM      H12A           21.3814777534      -11.7154945655      -25.9708169621  MEMB      134             0.0000000000
     16608       134  23SM      H12B           22.6780253636      -10.5817224725      -26.2602193861  MEMB      134             0.0000000000
     16609       134  23SM      C11            23.2148208424      -12.1838841773      -25.0427327233  MEMB      134             0.0000000000
     16610       134  23SM      H11A           22.7783803557      -11.6783060515      -24.1549086575  MEMB      134             0.0000000000
     16611       134  23SM      H11B           24.2565289972      -11.8371364694      -25.2128244660  MEMB      134             0.0000000000
     16612       134  23SM      P              21.6976479472      -14.3683087397      -24.5860292741  MEMB      134             0.0000000000
     16613       134  23SM      O13            20.5370060806      -13.8935229459      -25.3139745399  MEMB      134             0.0000000000
     16614       134  23SM      O14            21.9452470448      -15.8230317402      -24.6650044577  MEMB      134             0.0000000000
     16615       134  23SM      O11            21.5917928804      -13.9410188099      -23.0881807061  MEMB      134             0.0000000000
     16616       134  23SM      O12            23.0250113016      -13.5851063232      -25.0661240482  MEMB      134             0.0000000000
     16617       134  23SM      C1S            22.6024837698      -14.0721806002      -22.1916331774  MEMB      134             0.0000000000
     16618       134  23SM      H1S            23.5484532919      -13.6372804515      -22.5793503470  MEMB      134             0.0000000000
     16619       134  23SM      H1T            22.9539511404      -15.1144053711      -22.0349189720  MEMB      134             0.0000000000
     16620       134  23SM      NF             23.2549272690      -13.1514360090      -19.8318343632  MEMB      134             0.0000000000
     16621       134  23SM      HNF            23.1821195677      -13.5342256423      -18.9141305430  MEMB      134             0.0000000000
     16622       134  23SM      C2S            22.1469341446      -13.4007611871      -20.7957689706  MEMB      134             0.0000000000
     16623       134  23SM      H2S            21.8125702731      -12.4136824016      -21.1807329759  MEMB      134             0.0000000000
     16624       134  23SM      C3S            21.0500235483      -14.2392045374      -20.0965461574  MEMB      134             0.0000000000
     16625       134  23SM      H3S            21.4489914868      -15.2711367478      -19.9952476108  MEMB      134             0.0000000000
     16626       134  23SM      O3             19.8968798819      -14.4519332084      -20.8443281532  MEMB      134             0.0000000000
     16627       134  23SM      HO3            19.6976277225      -14.0587470107      -21.6971487299  MEMB      134             0.0000000000
     16628       134  23SM      C4S            20.6532863178      -13.5893637293      -18.8608394523  MEMB      134             0.0000000000
     16629       134  23SM      H4S            20.3453682182      -12.5353879314      -18.9265767394  MEMB      134             0.0000000000
     16630       134  23SM      C5S            20.7339092108      -14.1383016078      -17.6353112238  MEMB      134             0.0000000000
     16631       134  23SM      H5S            21.0387415899      -15.1793861351      -17.4530468569  MEMB      134             0.0000000000
     16632       134  23SM      C6S            20.2221445403      -13.3838272756      -16.3748102155  MEMB      134             0.0000000000
     16633       134  23SM      H6S            20.2919627887      -12.2751410442      -16.3586426031  MEMB      134             0.0000000000
     16634       134  23SM      H6T            20.9081799845      -13.5982174307      -15.5276300178  MEMB      134             0.0000000000
     16635       134  23SM      C7S            18.7964084221      -13.7351109818      -15.9648947659  MEMB      134             0.0000000000
     16636       134  23SM      H7S            18.6708974880      -14.8095040908      -15.7114232658  MEMB      134             0.0000000000
     16637       134  23SM      H7T            18.0914371842      -13.5376572809      -16.8005670078  MEMB      134             0.0000000000
     16638       134  23SM      C8S            18.4033149474      -12.8966883818      -14.6993305125  MEMB      134             0.0000000000
     16639       134  23SM      H8S            17.4102260653      -12.4635148102      -14.9452099109  MEMB      134             0.0000000000
     16640       134  23SM      H8T            19.1197137218      -12.0577786414      -14.5677100216  MEMB      134             0.0000000000
     16641       134  23SM      C9S            18.1974724046      -13.8250139551      -13.4653866916  MEMB      134             0.0000000000
     16642       134  23SM      H9S            19.1514543280      -14.3927047041      -13.4210395225  MEMB      134             0.0000000000
     16643       134  23SM      H9T            17.4211125713      -14.5731178408      -13.7335796724  MEMB      134             0.0000000000
     16644       134  23SM      C10S           17.7331840469      -13.0852521300      -12.2135117037  MEMB      134             0.0000000000
     16645       134  23SM      H10S           17.3643581357      -13.8172728114      -11.4635555772  MEMB      134             0.0000000000
     16646       134  23SM      H10T           16.8731680478      -12.4764066026      -12.5656475442  MEMB      134             0.0000000000
     16647       134  23SM      C11S           18.8541162306      -12.1783874181      -11.6459556517  MEMB      134             0.0000000000
     16648       134  23SM      H11S           19.0700593187      -11.3190706246      -12.3162275072  MEMB      134             0.0000000000
     16649       134  23SM      H11T           19.8259977002      -12.7157653402      -11.6144563383  MEMB      134             0.0000000000
     16650       134  23SM      C12S           18.5101031887      -11.6108919642      -10.2493052204  MEMB      134             0.0000000000
     16651       134  23SM      H12S           17.5649939636      -11.0371505582      -10.3584387978  MEMB      134             0.0000000000
     16652       134  23SM      H12T           19.2856069370      -10.8669018691       -9.9675370736  MEMB      134             0.0000000000
     16653       134  23SM      C13S           18.2921664163      -12.6578515335       -9.1369449135  MEMB      134             0.0000000000
     16654       134  23SM      H13S           19.2551137202      -13.2118654486       -9.1479826357  MEMB      134             0.0000000000
     16655       134  23SM      H13T           17.4056811219      -13.2744981771       -9.3981177953  MEMB      134             0.0000000000
     16656       134  23SM      C14S           18.1601728613      -12.0438156007       -7.6861026009  MEMB      134             0.0000000000
     16657       134  23SM      H14S           17.1446509181      -11.5948233306       -7.6481206424  MEMB      134             0.0000000000
     16658       134  23SM      H14T           19.0504749719      -11.3843205176       -7.6039490369  MEMB      134             0.0000000000
     16659       134  23SM      C15S           18.2746057741      -13.0760320176       -6.5459897361  MEMB      134             0.0000000000
     16660       134  23SM      H15S           19.2371189986      -13.6209422780       -6.6506901953  MEMB      134             0.0000000000
     16661       134  23SM      H15T           17.4447738729      -13.7995925084       -6.6948513614  MEMB      134             0.0000000000
     16662       134  23SM      C16S           18.1899024759      -12.4515201737       -5.1902521867  MEMB      134             0.0000000000
     16663       134  23SM      H16S           17.1255005377      -12.2128747526       -4.9794971417  MEMB      134             0.0000000000
     16664       134  23SM      H16T           18.7959233421      -11.5247028279       -5.1004229333  MEMB      134             0.0000000000
     16665       134  23SM      C17S           18.7453082970      -13.4992175381       -4.1853451696  MEMB      134             0.0000000000
     16666       134  23SM      H17S           19.8093146156      -13.5940836806       -4.4906520122  MEMB      134             0.0000000000
     16667       134  23SM      H17T           18.3024867584      -14.5101476460       -4.3128231209  MEMB      134             0.0000000000
     16668       134  23SM      C18S           18.5564910573      -12.9764004518       -2.7749526552  MEMB      134             0.0000000000
     16669       134  23SM      H18S           18.6762542493      -13.8243122546       -2.0671229993  MEMB      134             0.0000000000
     16670       134  23SM      H18T           17.5057580941      -12.6460203469       -2.6295915412  MEMB      134             0.0000000000
     16671       134  23SM      H18U           19.2143329368      -12.1339739879       -2.4718303126  MEMB      134             0.0000000000
     16672       134  23SM      C1F            24.4081246064      -12.3957242137      -20.0989556166  MEMB      134             0.0000000000
     16673       134  23SM      OF             24.5543583826      -11.8249833795      -21.1639412556  MEMB      134             0.0000000000
     16674       134  23SM      C2F            25.4066126752      -12.3573081609      -19.0296997096  MEMB      134             0.0000000000
     16675       134  23SM      H2F            26.1181969943      -13.2043720082      -19.1319315455  MEMB      134             0.0000000000
     16676       134  23SM      H2G            24.9444020146      -12.4657820078      -18.0252513817  MEMB      134             0.0000000000
     16677       134  23SM      C3F            26.1229879193      -10.9859873555      -18.9314472309  MEMB      134             0.0000000000
     16678       134  23SM      H3F            26.5042672581      -10.6969190847      -19.9341369401  MEMB      134             0.0000000000
     16679       134  23SM      H3G            26.9535946922      -10.9138802953      -18.1971353288  MEMB      134             0.0000000000
     16680       134  23SM      C4F            25.2135414136       -9.8767506456      -18.4062945870  MEMB      134             0.0000000000
     16681       134  23SM      H4F            24.1847115593       -9.8060958131      -18.8196202218  MEMB      134             0.0000000000
     16682       134  23SM      H4G            25.7266029098       -8.9778188203      -18.8100402955  MEMB      134             0.0000000000
     16683       134  23SM      C5F            25.0843669742       -9.8011308640      -16.8758114339  MEMB      134             0.0000000000
     16684       134  23SM      H5F            26.0001613974       -9.3707235804      -16.4171272518  MEMB      134             0.0000000000
     16685       134  23SM      H5G            24.9086499747      -10.8708339302      -16.6325408191  MEMB      134             0.0000000000
     16686       134  23SM      C6F            23.9849704664       -8.8494009381      -16.3710013675  MEMB      134             0.0000000000
     16687       134  23SM      H6F            22.9955884422       -9.2036840479      -16.7314564008  MEMB      134             0.0000000000
     16688       134  23SM      H6G            24.1509145573       -7.8871245645      -16.9009143316  MEMB      134             0.0000000000
     16689       134  23SM      C7F            23.9702122248       -8.5146899887      -14.8483406940  MEMB      134             0.0000000000
     16690       134  23SM      H7F            23.1354732212       -7.8013440743      -14.6790191163  MEMB      134             0.0000000000
     16691       134  23SM      H7G            24.9008269795       -8.0226320678      -14.4931562441  MEMB      134             0.0000000000
     16692       134  23SM      C8F            23.8123669361       -9.6943392957      -13.8652339273  MEMB      134             0.0000000000
     16693       134  23SM      H8F            23.6574872443       -9.3582546572      -12.8176743725  MEMB      134             0.0000000000
     16694       134  23SM      H8G            24.8026340704      -10.1977525474      -13.8815838460  MEMB      134             0.0000000000
     16695       134  23SM      C9F            22.5799190015      -10.5935961161      -14.1051248435  MEMB      134             0.0000000000
     16696       134  23SM      H9F            22.6442514414      -11.1743720956      -15.0500480722  MEMB      134             0.0000000000
     16697       134  23SM      H9G            21.7269786106       -9.8818505676      -14.1203494289  MEMB      134             0.0000000000
     16698       134  23SM      C10F           22.2890992722      -11.6204707480      -12.9920156244  MEMB      134             0.0000000000
     16699       134  23SM      H10F           21.4613844539      -12.1895977746      -13.4666771187  MEMB      134             0.0000000000
     16700       134  23SM      H10G           21.7083236399      -11.0666643893      -12.2236931103  MEMB      134             0.0000000000
     16701       134  23SM      C11F           23.4759163434      -12.3728287019      -12.4557756575  MEMB      134             0.0000000000
     16702       134  23SM      H11F           24.0312166075      -11.5868680638      -11.9005925276  MEMB      134             0.0000000000
     16703       134  23SM      H11G           24.0957835731      -12.8544595822      -13.2419799254  MEMB      134             0.0000000000
     16704       134  23SM      C12F           23.0994955674      -13.5146397743      -11.5835651348  MEMB      134             0.0000000000
     16705       134  23SM      H12F           22.3550250620      -14.1641217655      -12.0917555798  MEMB      134             0.0000000000
     16706       134  23SM      H12G           22.5424289605      -12.9919667374      -10.7768365402  MEMB      134             0.0000000000
     16707       134  23SM      C13F           24.2189302074      -14.2916561142      -10.9648314994  MEMB      134             0.0000000000
     16708       134  23SM      H13F           24.9134701533      -13.5400685197      -10.5323365801  MEMB      134             0.0000000000
     16709       134  23SM      H13G           24.6597144528      -14.6944556203      -11.9017321086  MEMB      134             0.0000000000
     16710       134  23SM      C14F           23.8273380928      -15.3606664940      -10.0444887413  MEMB      134             0.0000000000
     16711       134  23SM      H14F           24.7132172592      -15.9278714792       -9.6869728656  MEMB      134             0.0000000000
     16712       134  23SM      H14G           23.0825665127      -16.0353499812      -10.5182373034  MEMB      134             0.0000000000
     16713       134  23SM      C15F           23.2064452674      -14.8135711547       -8.7223446457  MEMB      134             0.0000000000
     16714       134  23SM      H15F           22.3494104263      -14.1798476263       -9.0357241513  MEMB      134             0.0000000000
     16715       134  23SM      H15G           24.0374780404      -14.2881513767       -8.2050068301  MEMB      134             0.0000000000
     16716       134  23SM      C16F           22.7514301544      -15.9580481665       -7.7509366269  MEMB      134             0.0000000000
     16717       134  23SM      H16F           22.7286564401      -16.8996652363       -8.3401396755  MEMB      134             0.0000000000
     16718       134  23SM      H16G           21.7570778377      -15.7590933744       -7.2970633429  MEMB      134             0.0000000000
     16719       134  23SM      C17F           23.7506749968      -16.2434272237       -6.5519246265  MEMB      134             0.0000000000
     16720       134  23SM      H17F           24.7503387607      -16.2979640013       -7.0336094291  MEMB      134             0.0000000000
     16721       134  23SM      H17G           23.4641349287      -17.2334332292       -6.1370706007  MEMB      134             0.0000000000
     16722       134  23SM      C18F           23.7334358469      -15.0989013443       -5.5022728719  MEMB      134             0.0000000000
     16723       134  23SM      H18F           22.7084904625      -14.6973086360       -5.3521692593  MEMB      134             0.0000000000
     16724       134  23SM      H18G           24.4225887543      -14.3120824756       -5.8768473022  MEMB      134             0.0000000000
     16725       134  23SM      C19F           24.3729761548      -15.6427182154       -4.2067166676  MEMB      134             0.0000000000
     16726       134  23SM      H19F           25.3406612631      -16.1394603084       -4.4328881856  MEMB      134             0.0000000000
     16727       134  23SM      H19G           23.7651624839      -16.5072883268       -3.8640772312  MEMB      134             0.0000000000
     16728       134  23SM      C20F           24.5496747220      -14.6246839445       -3.0553263004  MEMB      134             0.0000000000
     16729       134  23SM      H20F           23.5578483448      -14.1423121144       -2.9214642553  MEMB      134             0.0000000000
     16730       134  23SM      H20G           25.2695556401      -13.8011619894       -3.2500154766  MEMB      134             0.0000000000
     16731       134  23SM      C21F           24.9055700268      -15.2223832196       -1.6935185596  MEMB      134             0.0000000000
     16732       134  23SM      H21F           24.1109871731      -15.9293100253       -1.3722495060  MEMB      134             0.0000000000
     16733       134  23SM      H21G           25.0319548042      -14.3966720273       -0.9610238452  MEMB      134             0.0000000000
     16734       134  23SM      C22F           26.2999317316      -15.9500998014       -1.5584769378  MEMB      134             0.0000000000
     16735       134  23SM      H22F           27.1416985871      -15.2348569631       -1.6775459944  MEMB      134             0.0000000000
     16736       134  23SM      H22G           26.3964673401      -16.6974259276       -2.3748753923  MEMB      134             0.0000000000
     16737       134  23SM      C23F           26.6037683560      -16.5709718363       -0.1750420129  MEMB      134             0.0000000000
     16738       134  23SM      H23F           27.1164380475      -15.8494452138        0.4964407614  MEMB      134             0.0000000000
     16739       134  23SM      H23G           27.1736791494      -17.5234074237       -0.2239255699  MEMB      134             0.0000000000
     16740       134  23SM      H23H           25.6276953727      -16.8665077160        0.2657085774  MEMB      134             0.0000000000
     16741       135  DOPC      N             -16.5829580418       19.5820294885      -21.0029188395  MEMB      135             0.0000000000
     16742       135  DOPC      C12           -17.7193716605       19.7945694886      -20.0386287113  MEMB      135             0.0000000000
     16743       135  DOPC      H12A          -17.8410848317       18.9171227239      -19.4208317313  MEMB      135             0.0000000000
     16744       135  DOPC      H12B          -18.6342486814       19.7421139317      -20.6101603237  MEMB      135             0.0000000000
     16745       135  DOPC      C13           -15.2911351127       19.6205249753      -20.2264319439  MEMB      135             0.0000000000
     16746       135  DOPC      H13A          -15.1306294673       20.6083574180      -19.8204453698  MEMB      135             0.0000000000
     16747       135  DOPC      H13B          -15.3084505835       18.9106570509      -19.4126826877  MEMB      135             0.0000000000
     16748       135  DOPC      H13C          -14.4510263854       19.3548513742      -20.8509596127  MEMB      135             0.0000000000
     16749       135  DOPC      C14           -16.5699364777       20.5828544219      -22.1581604790  MEMB      135             0.0000000000
     16750       135  DOPC      H14A          -15.6489529977       20.5532603411      -22.7214662040  MEMB      135             0.0000000000
     16751       135  DOPC      H14B          -17.3751500802       20.2785584102      -22.8104143638  MEMB      135             0.0000000000
     16752       135  DOPC      H14C          -16.9413989867       21.4976092933      -21.7203943554  MEMB      135             0.0000000000
     16753       135  DOPC      C15           -16.8235408782       18.1741097893      -21.5843227639  MEMB      135             0.0000000000
     16754       135  DOPC      H15A          -16.2461658676       17.8782326733      -22.4477430305  MEMB      135             0.0000000000
     16755       135  DOPC      H15B          -17.8692090629       17.9906424236      -21.7826098021  MEMB      135             0.0000000000
     16756       135  DOPC      H15C          -16.6543960257       17.3698350277      -20.8836572953  MEMB      135             0.0000000000
     16757       135  DOPC      C11           -17.8017104248       21.0677523162      -19.0686179371  MEMB      135             0.0000000000
     16758       135  DOPC      H11A          -17.8817112285       22.0349139287      -19.6094686855  MEMB      135             0.0000000000
     16759       135  DOPC      H11B          -18.7839717650       21.0652373756      -18.5495058773  MEMB      135             0.0000000000
     16760       135  DOPC      P             -16.2885514375       20.3646249794      -17.0095625036  MEMB      135             0.0000000000
     16761       135  DOPC      O13           -14.8222790800       20.2068989872      -16.9747030810  MEMB      135             0.0000000000
     16762       135  DOPC      O14           -17.0966405133       19.1275142779      -17.0273001831  MEMB      135             0.0000000000
     16763       135  DOPC      O12           -16.6676958669       21.2709345960      -18.2286186958  MEMB      135             0.0000000000
     16764       135  DOPC      O11           -16.8175356094       21.2383333780      -15.6807348615  MEMB      135             0.0000000000
     16765       135  DOPC      C1            -15.9543335792       21.3888624109      -14.5895437387  MEMB      135             0.0000000000
     16766       135  DOPC      HA            -16.2382484186       22.1863257148      -13.8699847711  MEMB      135             0.0000000000
     16767       135  DOPC      HB            -14.9041896981       21.6107592091      -14.8763897520  MEMB      135             0.0000000000
     16768       135  DOPC      C2            -15.7787441680       20.1292107460      -13.5877269404  MEMB      135             0.0000000000
     16769       135  DOPC      HS            -15.1957521399       19.4041103605      -14.1949097319  MEMB      135             0.0000000000
     16770       135  DOPC      O21           -17.0726986960       19.7025060810      -13.1215233497  MEMB      135             0.0000000000
     16771       135  DOPC      C21           -17.1459331713       18.5475782894      -12.4139043223  MEMB      135             0.0000000000
     16772       135  DOPC      O22           -16.2564867646       17.7514911481      -12.2964463596  MEMB      135             0.0000000000
     16773       135  DOPC      C22           -18.5554826544       18.3430271497      -11.9168047887  MEMB      135             0.0000000000
     16774       135  DOPC      H2R           -19.0801636516       17.7992047992      -12.7312302578  MEMB      135             0.0000000000
     16775       135  DOPC      H2S           -19.0965514429       19.3040412197      -11.7825753725  MEMB      135             0.0000000000
     16776       135  DOPC      C3            -14.8760902621       20.3854392336      -12.4294578487  MEMB      135             0.0000000000
     16777       135  DOPC      HX            -13.9109806574       20.7217256565      -12.8651134595  MEMB      135             0.0000000000
     16778       135  DOPC      HY            -14.6183322343       19.5665251312      -11.7242902499  MEMB      135             0.0000000000
     16779       135  DOPC      O31           -15.4098307195       21.5612712819      -11.7533517145  MEMB      135             0.0000000000
     16780       135  DOPC      C31           -14.7680026734       21.7545948265      -10.6324629619  MEMB      135             0.0000000000
     16781       135  DOPC      O32           -13.6723529776       21.2910751253      -10.3704971489  MEMB      135             0.0000000000
     16782       135  DOPC      C32           -15.5241173033       22.8304439194       -9.7814307894  MEMB      135             0.0000000000
     16783       135  DOPC      H2X           -15.1046738706       22.7567756361       -8.7552918030  MEMB      135             0.0000000000
     16784       135  DOPC      H2Y           -15.6400171200       23.8422440904      -10.2254452263  MEMB      135             0.0000000000
     16785       135  DOPC      C23           -18.4730890212       17.3673032072      -10.6622632105  MEMB      135             0.0000000000
     16786       135  DOPC      H3R           -17.6055178895       16.6732994511      -10.6619923490  MEMB      135             0.0000000000
     16787       135  DOPC      H3S           -19.4114153091       16.7725816736      -10.6753439534  MEMB      135             0.0000000000
     16788       135  DOPC      C24           -18.4957125825       18.1606389124       -9.3085759437  MEMB      135             0.0000000000
     16789       135  DOPC      H4R           -19.4129460591       18.7815708058       -9.2222772836  MEMB      135             0.0000000000
     16790       135  DOPC      H4S           -17.5544070182       18.7444053009       -9.3950723374  MEMB      135             0.0000000000
     16791       135  DOPC      C25           -18.1473006667       17.1233541505       -8.2163353528  MEMB      135             0.0000000000
     16792       135  DOPC      H5R           -17.2178850781       16.5574579030       -8.4405427075  MEMB      135             0.0000000000
     16793       135  DOPC      H5S           -18.9994473603       16.4129934392       -8.1567142009  MEMB      135             0.0000000000
     16794       135  DOPC      C26           -17.7141699727       17.8666373423       -6.9443377004  MEMB      135             0.0000000000
     16795       135  DOPC      H6R           -17.5576806344       17.0157086550       -6.2473783431  MEMB      135             0.0000000000
     16796       135  DOPC      H6S           -18.4310864201       18.6246409735       -6.5625235450  MEMB      135             0.0000000000
     16797       135  DOPC      C27           -16.4061021021       18.5874555525       -6.9520103829  MEMB      135             0.0000000000
     16798       135  DOPC      H7R           -16.5739729284       19.4833755244       -7.5872019654  MEMB      135             0.0000000000
     16799       135  DOPC      H7S           -15.5213889890       18.0323821506       -7.3308209758  MEMB      135             0.0000000000
     16800       135  DOPC      C28           -15.9575105528       18.9682323093       -5.5380770503  MEMB      135             0.0000000000
     16801       135  DOPC      H8R           -16.0987225827       18.1527443989       -4.7968889374  MEMB      135             0.0000000000
     16802       135  DOPC      H8S           -16.5998562936       19.8420060418       -5.2967623030  MEMB      135             0.0000000000
     16803       135  DOPC      C29           -14.4994405260       19.2567830410       -5.3798899571  MEMB      135             0.0000000000
     16804       135  DOPC      H9R           -13.7969131699       18.4233379658       -5.2321591936  MEMB      135             0.0000000000
     16805       135  DOPC      C210          -14.0098052417       20.5224361552       -5.3237083901  MEMB      135             0.0000000000
     16806       135  DOPC      H10R          -12.9399890682       20.6259864334       -5.0896772948  MEMB      135             0.0000000000
     16807       135  DOPC      C211          -14.7338047712       21.7848542832       -5.3618761827  MEMB      135             0.0000000000
     16808       135  DOPC      H11R          -15.8045698269       21.5792433728       -5.5752006600  MEMB      135             0.0000000000
     16809       135  DOPC      H11S          -14.3709126438       22.4597589141       -6.1663230315  MEMB      135             0.0000000000
     16810       135  DOPC      C212          -14.5595928816       22.6513397210       -4.1283948398  MEMB      135             0.0000000000
     16811       135  DOPC      H12R          -15.0367459228       23.6466842628       -4.2546286199  MEMB      135             0.0000000000
     16812       135  DOPC      H12S          -13.4642404303       22.8046533133       -4.0234226108  MEMB      135             0.0000000000
     16813       135  DOPC      C213          -15.2123582665       22.0380746718       -2.8583002753  MEMB      135             0.0000000000
     16814       135  DOPC      H13R          -14.5243521766       21.4124871463       -2.2503457928  MEMB      135             0.0000000000
     16815       135  DOPC      H13S          -16.1343814141       21.5083710958       -3.1801833171  MEMB      135             0.0000000000
     16816       135  DOPC      C214          -15.5419204483       23.2763783714       -1.9616552448  MEMB      135             0.0000000000
     16817       135  DOPC      H14R          -16.1850438434       22.9739835843       -1.1076810927  MEMB      135             0.0000000000
     16818       135  DOPC      H14S          -16.1074578819       24.0094357009       -2.5757532225  MEMB      135             0.0000000000
     16819       135  DOPC      C215          -14.3442436186       23.9756789007       -1.4755884674  MEMB      135             0.0000000000
     16820       135  DOPC      H15R          -13.7163314704       24.2961839054       -2.3342631844  MEMB      135             0.0000000000
     16821       135  DOPC      H15S          -13.7296625704       23.3119572182       -0.8305418224  MEMB      135             0.0000000000
     16822       135  DOPC      C216          -14.7159126952       25.2666347892       -0.6633025790  MEMB      135             0.0000000000
     16823       135  DOPC      H16R          -15.3543832714       26.0227353752       -1.1682666403  MEMB      135             0.0000000000
     16824       135  DOPC      H16S          -13.7801446431       25.8572239690       -0.5639850864  MEMB      135             0.0000000000
     16825       135  DOPC      C217          -15.5259929954       24.9274912478        0.6050999079  MEMB      135             0.0000000000
     16826       135  DOPC      H17R          -16.4409618555       24.4002411988        0.2599023847  MEMB      135             0.0000000000
     16827       135  DOPC      H17S          -15.8310488003       25.8994015025        1.0485542846  MEMB      135             0.0000000000
     16828       135  DOPC      C218          -14.7674961021       24.1017507354        1.5793700009  MEMB      135             0.0000000000
     16829       135  DOPC      H18R          -13.6778890605       24.2897845299        1.4711083784  MEMB      135             0.0000000000
     16830       135  DOPC      H18S          -14.8759057316       23.0299387224        1.3077321807  MEMB      135             0.0000000000
     16831       135  DOPC      H18T          -15.0137480209       24.0641097747        2.6620812871  MEMB      135             0.0000000000
     16832       135  DOPC      C33           -17.0706189372       22.6296187164       -9.6495997052  MEMB      135             0.0000000000
     16833       135  DOPC      H3X           -17.2690499742       21.6554539803       -9.1536666274  MEMB      135             0.0000000000
     16834       135  DOPC      H3Y           -17.5985633694       22.5280273473      -10.6218519822  MEMB      135             0.0000000000
     16835       135  DOPC      C34           -17.6927795920       23.7860452199       -8.8979661464  MEMB      135             0.0000000000
     16836       135  DOPC      H4X           -17.5654212407       24.8059021393       -9.3198579478  MEMB      135             0.0000000000
     16837       135  DOPC      H4Y           -17.1844520714       23.7361359081       -7.9113390349  MEMB      135             0.0000000000
     16838       135  DOPC      C35           -19.1031278215       23.3719417174       -8.4738876041  MEMB      135             0.0000000000
     16839       135  DOPC      H5X           -19.6174732146       22.7110518166       -9.2039529817  MEMB      135             0.0000000000
     16840       135  DOPC      H5Y           -19.7646720712       24.2645041329       -8.4703756203  MEMB      135             0.0000000000
     16841       135  DOPC      C36           -18.9944201246       22.7267851737       -7.0168710204  MEMB      135             0.0000000000
     16842       135  DOPC      H6X           -19.9366233401       22.1401944619       -6.9670183906  MEMB      135             0.0000000000
     16843       135  DOPC      H6Y           -18.2948156544       21.8869054992       -7.2155590488  MEMB      135             0.0000000000
     16844       135  DOPC      C37           -18.6898108004       23.6269750179       -5.7854203928  MEMB      135             0.0000000000
     16845       135  DOPC      H7X           -17.7452535670       24.1614821611       -6.0229808880  MEMB      135             0.0000000000
     16846       135  DOPC      H7Y           -19.4206690906       24.4423876460       -5.5976186613  MEMB      135             0.0000000000
     16847       135  DOPC      C38           -18.4876177164       22.8157911500       -4.4886607306  MEMB      135             0.0000000000
     16848       135  DOPC      H8X           -18.1009963398       23.4014557434       -3.6273583977  MEMB      135             0.0000000000
     16849       135  DOPC      H8Y           -17.7262483628       22.0232018802       -4.6512651743  MEMB      135             0.0000000000
     16850       135  DOPC      C39           -19.8366444699       22.2598099832       -4.0848293100  MEMB      135             0.0000000000
     16851       135  DOPC      H9X           -20.5319581148       23.0801830293       -3.8534698373  MEMB      135             0.0000000000
     16852       135  DOPC      C310          -20.2526530424       20.9547404114       -3.9127635427  MEMB      135             0.0000000000
     16853       135  DOPC      H10X          -21.2708904293       20.8769615868       -3.5039318245  MEMB      135             0.0000000000
     16854       135  DOPC      C311          -19.5564500034       19.6934475951       -4.1001238985  MEMB      135             0.0000000000
     16855       135  DOPC      H11X          -18.5082851013       19.7479098649       -4.4644108979  MEMB      135             0.0000000000
     16856       135  DOPC      H11Y          -20.1309151836       19.3210019050       -4.9751071439  MEMB      135             0.0000000000
     16857       135  DOPC      C312          -19.4979516911       18.9377099771       -2.7605297128  MEMB      135             0.0000000000
     16858       135  DOPC      H12X          -19.0232801536       17.9430630729       -2.9008350286  MEMB      135             0.0000000000
     16859       135  DOPC      H12Y          -20.5695445032       18.8736160901       -2.4743450493  MEMB      135             0.0000000000
     16860       135  DOPC      C313          -18.6552740751       19.6163460899       -1.6546840058  MEMB      135             0.0000000000
     16861       135  DOPC      H13X          -17.6022767176       19.7784088780       -1.9697289488  MEMB      135             0.0000000000
     16862       135  DOPC      H13Y          -18.9947827975       20.6640519365       -1.5085097065  MEMB      135             0.0000000000
     16863       135  DOPC      C314          -18.5964044652       18.8123557201       -0.3488254767  MEMB      135             0.0000000000
     16864       135  DOPC      H14X          -19.4044778468       19.1320356688        0.3433778604  MEMB      135             0.0000000000
     16865       135  DOPC      H14Y          -18.7871707006       17.7282263550       -0.4991333784  MEMB      135             0.0000000000
     16866       135  DOPC      C315          -17.3622831274       19.0920760161        0.5130448637  MEMB      135             0.0000000000
     16867       135  DOPC      H15X          -16.4314290022       18.9211612408       -0.0688659154  MEMB      135             0.0000000000
     16868       135  DOPC      H15Y          -17.3563776215       18.3519944659        1.3416372750  MEMB      135             0.0000000000
     16869       135  DOPC      C316          -17.2111257826       20.4827217993        1.1483505081  MEMB      135             0.0000000000
     16870       135  DOPC      H16X          -16.3324188275       20.4550507842        1.8276375585  MEMB      135             0.0000000000
     16871       135  DOPC      H16Y          -16.9113686259       21.2132028177        0.3667727047  MEMB      135             0.0000000000
     16872       135  DOPC      C317          -18.4886915641       21.1975712310        1.7324973557  MEMB      135             0.0000000000
     16873       135  DOPC      H17X          -19.0874306478       21.6235051077        0.8991815896  MEMB      135             0.0000000000
     16874       135  DOPC      H17Y          -19.0478886632       20.4353341794        2.3161181132  MEMB      135             0.0000000000
     16875       135  DOPC      C318          -18.1672900919       22.3319244904        2.7365340584  MEMB      135             0.0000000000
     16876       135  DOPC      H18X          -19.1070109806       22.6867714997        3.2112226431  MEMB      135             0.0000000000
     16877       135  DOPC      H18Y          -17.4709667508       21.8997598347        3.4866589921  MEMB      135             0.0000000000
     16878       135  DOPC      H18Z          -17.7650455398       23.1564170189        2.1098497057  MEMB      135             0.0000000000
     16879       136  DOPC      N              21.0033942020       13.8813861603      -21.0713852562  MEMB      136             0.0000000000
     16880       136  DOPC      C12            20.7101660966       13.1854459921      -19.6888948273  MEMB      136             0.0000000000
     16881       136  DOPC      H12A           21.0973059750       12.1776424393      -19.7181288231  MEMB      136             0.0000000000
     16882       136  DOPC      H12B           19.6374271411       13.1021350402      -19.5956720863  MEMB      136             0.0000000000
     16883       136  DOPC      C13            22.5053545497       14.0304546907      -21.2930393569  MEMB      136             0.0000000000
     16884       136  DOPC      H13A           22.6198109947       14.7472873035      -22.0926958699  MEMB      136             0.0000000000
     16885       136  DOPC      H13B           22.9283818895       14.3699972054      -20.3591449377  MEMB      136             0.0000000000
     16886       136  DOPC      H13C           22.9814817068       13.0740269374      -21.4509914404  MEMB      136             0.0000000000
     16887       136  DOPC      C14            20.2499333559       15.1767735086      -21.1407775598  MEMB      136             0.0000000000
     16888       136  DOPC      H14A           20.7058268212       15.8894187931      -20.4694372576  MEMB      136             0.0000000000
     16889       136  DOPC      H14B           20.1859199206       15.5563949697      -22.1498313156  MEMB      136             0.0000000000
     16890       136  DOPC      H14C           19.2578879666       15.0728795150      -20.7267102549  MEMB      136             0.0000000000
     16891       136  DOPC      C15            20.5553552972       12.9651906051      -22.1398223336  MEMB      136             0.0000000000
     16892       136  DOPC      H15A           19.5834360413       12.5373023209      -21.9431387521  MEMB      136             0.0000000000
     16893       136  DOPC      H15B           21.2399602610       12.1488893460      -22.3169334528  MEMB      136             0.0000000000
     16894       136  DOPC      H15C           20.4534861086       13.5122586499      -23.0654244677  MEMB      136             0.0000000000
     16895       136  DOPC      C11            21.1195626301       13.7614904628      -18.3264717862  MEMB      136             0.0000000000
     16896       136  DOPC      H11A           20.5558438847       14.7062405332      -18.1715865611  MEMB      136             0.0000000000
     16897       136  DOPC      H11B           20.8330533690       13.0539890219      -17.5192077277  MEMB      136             0.0000000000
     16898       136  DOPC      P              23.2516613315       14.5656218212      -16.9971174104  MEMB      136             0.0000000000
     16899       136  DOPC      O13            24.5295450132       15.1555636545      -17.4937862428  MEMB      136             0.0000000000
     16900       136  DOPC      O14            23.2420521667       13.4229323146      -16.0162901300  MEMB      136             0.0000000000
     16901       136  DOPC      O12            22.5448351138       13.9887053103      -18.2884789427  MEMB      136             0.0000000000
     16902       136  DOPC      O11            22.2678298436       15.7842260804      -16.5439361808  MEMB      136             0.0000000000
     16903       136  DOPC      C1             22.2901196649       16.9871827353      -17.3245402886  MEMB      136             0.0000000000
     16904       136  DOPC      HA             22.1689370729       16.8313880565      -18.4178671498  MEMB      136             0.0000000000
     16905       136  DOPC      HB             23.2986547636       17.4172889000      -17.1451337269  MEMB      136             0.0000000000
     16906       136  DOPC      C2             21.2878603097       17.9906603890      -16.7371153503  MEMB      136             0.0000000000
     16907       136  DOPC      HS             21.5966514636       19.0076938679      -17.0605529510  MEMB      136             0.0000000000
     16908       136  DOPC      O21            21.2516912466       17.7854033199      -15.3416569565  MEMB      136             0.0000000000
     16909       136  DOPC      C21            22.0130327954       18.6556944452      -14.5632166144  MEMB      136             0.0000000000
     16910       136  DOPC      O22            22.6864796540       19.5683775662      -15.0046007817  MEMB      136             0.0000000000
     16911       136  DOPC      C22            21.7182756451       18.3737356034      -13.0761477384  MEMB      136             0.0000000000
     16912       136  DOPC      H2R            20.6535085348       18.5199686494      -12.7947083277  MEMB      136             0.0000000000
     16913       136  DOPC      H2S            22.3571537827       19.0768277566      -12.5001121022  MEMB      136             0.0000000000
     16914       136  DOPC      C3             19.8996819975       17.8047857659      -17.4198724879  MEMB      136             0.0000000000
     16915       136  DOPC      HX             20.1122439627       17.9831577722      -18.4956615550  MEMB      136             0.0000000000
     16916       136  DOPC      HY             19.3363449398       18.6812356066      -17.0341156410  MEMB      136             0.0000000000
     16917       136  DOPC      O31            19.1989014082       16.5923856220      -17.3017400136  MEMB      136             0.0000000000
     16918       136  DOPC      C31            18.4282985001       16.4798035609      -16.1929041332  MEMB      136             0.0000000000
     16919       136  DOPC      O32            18.4710212782       17.3003391886      -15.3157480619  MEMB      136             0.0000000000
     16920       136  DOPC      C32            17.6861910803       15.1506290060      -16.1620010984  MEMB      136             0.0000000000
     16921       136  DOPC      H2X            16.6063176228       15.3930186288      -16.2591694132  MEMB      136             0.0000000000
     16922       136  DOPC      H2Y            17.9293679310       14.3766419878      -16.9210336052  MEMB      136             0.0000000000
     16923       136  DOPC      C23            22.0466717538       16.9107409266      -12.8521609619  MEMB      136             0.0000000000
     16924       136  DOPC      H3R            21.7803986191       16.1547803845      -13.6215393458  MEMB      136             0.0000000000
     16925       136  DOPC      H3S            21.4333593104       16.6612650633      -11.9600117287  MEMB      136             0.0000000000
     16926       136  DOPC      C24            23.6151804905       16.7025438071      -12.6390474403  MEMB      136             0.0000000000
     16927       136  DOPC      H4R            23.8772776450       17.2173904482      -11.6900693194  MEMB      136             0.0000000000
     16928       136  DOPC      H4S            24.1298540392       17.1334423562      -13.5243490276  MEMB      136             0.0000000000
     16929       136  DOPC      C25            24.1230671641       15.1830425486      -12.4996890823  MEMB      136             0.0000000000
     16930       136  DOPC      H5R            25.2198795433       15.1722330300      -12.3230342645  MEMB      136             0.0000000000
     16931       136  DOPC      H5S            24.0027293757       14.7033885252      -13.4945617411  MEMB      136             0.0000000000
     16932       136  DOPC      C26            23.3146808271       14.4788160291      -11.4353745513  MEMB      136             0.0000000000
     16933       136  DOPC      H6R            22.3851024410       14.1818672072      -11.9664363716  MEMB      136             0.0000000000
     16934       136  DOPC      H6S            23.1820753584       15.1703290529      -10.5759875994  MEMB      136             0.0000000000
     16935       136  DOPC      C27            24.0821499985       13.2046062875      -10.8819963021  MEMB      136             0.0000000000
     16936       136  DOPC      H7R            25.1200539090       13.5444828538      -10.6781323578  MEMB      136             0.0000000000
     16937       136  DOPC      H7S            24.1685675573       12.5197834632      -11.7525540416  MEMB      136             0.0000000000
     16938       136  DOPC      C28            23.4778740703       12.5272548712       -9.6673163152  MEMB      136             0.0000000000
     16939       136  DOPC      H8R            23.2759890572       13.2597677737       -8.8567691031  MEMB      136             0.0000000000
     16940       136  DOPC      H8S            24.2293468061       11.7748549630       -9.3455958606  MEMB      136             0.0000000000
     16941       136  DOPC      C29            22.2630826737       11.8646283707      -10.1381950811  MEMB      136             0.0000000000
     16942       136  DOPC      H9R            21.9640729426       11.8882323685      -11.1965124145  MEMB      136             0.0000000000
     16943       136  DOPC      C210           21.4691312950       11.1778548382       -9.2863470744  MEMB      136             0.0000000000
     16944       136  DOPC      H10R           20.5887045871       10.7052905740       -9.7462733007  MEMB      136             0.0000000000
     16945       136  DOPC      C211           21.6326413553       11.0152583572       -7.8206722197  MEMB      136             0.0000000000
     16946       136  DOPC      H11R           22.7217722628       11.0211677589       -7.6014012801  MEMB      136             0.0000000000
     16947       136  DOPC      H11S           21.2289668133       10.0667961120       -7.4061996542  MEMB      136             0.0000000000
     16948       136  DOPC      C212           20.9352619420       12.1413694725       -6.9927042245  MEMB      136             0.0000000000
     16949       136  DOPC      H12R           21.2255222379       13.0752896829       -7.5198315562  MEMB      136             0.0000000000
     16950       136  DOPC      H12S           21.2976637604       12.2254760678       -5.9458455636  MEMB      136             0.0000000000
     16951       136  DOPC      C213           19.3628200519       12.0022975093       -6.9697879406  MEMB      136             0.0000000000
     16952       136  DOPC      H13R           19.1263960847       11.0112658659       -6.5267518263  MEMB      136             0.0000000000
     16953       136  DOPC      H13S           18.9864553809       12.0521885321       -8.0139055491  MEMB      136             0.0000000000
     16954       136  DOPC      C214           18.6358299265       13.0707447705       -6.1869479772  MEMB      136             0.0000000000
     16955       136  DOPC      H14R           17.5571645602       12.8554211459       -6.0306237475  MEMB      136             0.0000000000
     16956       136  DOPC      H14S           18.6810550093       13.9503783231       -6.8640890388  MEMB      136             0.0000000000
     16957       136  DOPC      C215           19.1783976730       13.4442093156       -4.7997620234  MEMB      136             0.0000000000
     16958       136  DOPC      H15R           18.5148987234       14.2430832738       -4.4049318469  MEMB      136             0.0000000000
     16959       136  DOPC      H15S           20.2110413886       13.8392365719       -4.9089470626  MEMB      136             0.0000000000
     16960       136  DOPC      C216           19.0948567391       12.2002422683       -3.8256635710  MEMB      136             0.0000000000
     16961       136  DOPC      H16R           19.8581732011       11.4275052175       -4.0592160389  MEMB      136             0.0000000000
     16962       136  DOPC      H16S           18.0806619272       11.7717167437       -3.9743104039  MEMB      136             0.0000000000
     16963       136  DOPC      C217           19.3269932844       12.6099034064       -2.3689979413  MEMB      136             0.0000000000
     16964       136  DOPC      H17R           19.8142832267       13.6004072841       -2.2434138976  MEMB      136             0.0000000000
     16965       136  DOPC      H17S           20.1863159155       11.9992579270       -2.0182873789  MEMB      136             0.0000000000
     16966       136  DOPC      C218           18.1295697767       12.4268022185       -1.4660946012  MEMB      136             0.0000000000
     16967       136  DOPC      H18R           18.3223889151       12.9076498000       -0.4832787736  MEMB      136             0.0000000000
     16968       136  DOPC      H18S           18.0281608308       11.3287027453       -1.3311323727  MEMB      136             0.0000000000
     16969       136  DOPC      H18T           17.2418750807       12.7892172795       -2.0273211378  MEMB      136             0.0000000000
     16970       136  DOPC      C33            17.9585320564       14.5612908727      -14.7969404559  MEMB      136             0.0000000000
     16971       136  DOPC      H3X            17.6310820215       13.5068259131      -14.9202318733  MEMB      136             0.0000000000
     16972       136  DOPC      H3Y            17.5814881217       15.0046212045      -13.8505700065  MEMB      136             0.0000000000
     16973       136  DOPC      C34            19.4658679145       14.3097848073      -14.6080417123  MEMB      136             0.0000000000
     16974       136  DOPC      H4X            19.8655564545       15.2967984472      -14.2912226834  MEMB      136             0.0000000000
     16975       136  DOPC      H4Y            19.8448769214       14.1565031515      -15.6410846636  MEMB      136             0.0000000000
     16976       136  DOPC      C35            19.8650889634       13.2586449740      -13.5520727217  MEMB      136             0.0000000000
     16977       136  DOPC      H5X            20.9655804451       13.3456134932      -13.4268690855  MEMB      136             0.0000000000
     16978       136  DOPC      H5Y            19.6955905039       12.2789744677      -14.0478922153  MEMB      136             0.0000000000
     16979       136  DOPC      C36            19.1478634736       13.2757618225      -12.1721136374  MEMB      136             0.0000000000
     16980       136  DOPC      H6X            18.0960918547       12.9602264374      -12.3410362079  MEMB      136             0.0000000000
     16981       136  DOPC      H6Y            19.7288500342       12.5111865430      -11.6133647768  MEMB      136             0.0000000000
     16982       136  DOPC      C37            19.2236703979       14.5598287198      -11.4509875075  MEMB      136             0.0000000000
     16983       136  DOPC      H7X            20.2661586925       14.9426634587      -11.4822408171  MEMB      136             0.0000000000
     16984       136  DOPC      H7Y            18.5744281873       15.2557492929      -12.0241370083  MEMB      136             0.0000000000
     16985       136  DOPC      C38            18.8191075529       14.3294669851       -9.9678403999  MEMB      136             0.0000000000
     16986       136  DOPC      H8X            19.6577464077       13.7761951271       -9.4936085304  MEMB      136             0.0000000000
     16987       136  DOPC      H8Y            18.0072346104       13.5845858867      -10.1104421469  MEMB      136             0.0000000000
     16988       136  DOPC      C39            18.4146338672       15.5605864332       -9.2164466021  MEMB      136             0.0000000000
     16989       136  DOPC      H9X            17.3665218000       15.5815913972       -8.8832498716  MEMB      136             0.0000000000
     16990       136  DOPC      C310           19.2665714215       16.5153241535       -8.9066936776  MEMB      136             0.0000000000
     16991       136  DOPC      H10X           18.8484964077       17.4777222061       -8.5765369162  MEMB      136             0.0000000000
     16992       136  DOPC      C311           20.7223970545       16.7650858836       -9.1621001536  MEMB      136             0.0000000000
     16993       136  DOPC      H11X           20.8051675482       17.5232274793       -9.9699930516  MEMB      136             0.0000000000
     16994       136  DOPC      H11Y           21.2897699166       15.9616542070       -9.6787302117  MEMB      136             0.0000000000
     16995       136  DOPC      C312           21.6240386772       17.2738734713       -8.0149119682  MEMB      136             0.0000000000
     16996       136  DOPC      H12X           21.5263311715       18.3713153033       -7.8720991802  MEMB      136             0.0000000000
     16997       136  DOPC      H12Y           22.6186554300       17.0884490961       -8.4739061876  MEMB      136             0.0000000000
     16998       136  DOPC      C313           21.3982447524       16.5174871743       -6.6924866637  MEMB      136             0.0000000000
     16999       136  DOPC      H13X           20.4902861185       16.9214798899       -6.1957748685  MEMB      136             0.0000000000
     17000       136  DOPC      H13Y           21.2860566425       15.4125943271       -6.6617201480  MEMB      136             0.0000000000
     17001       136  DOPC      C314           22.5034216223       17.0018820597       -5.7539272712  MEMB      136             0.0000000000
     17002       136  DOPC      H14X           23.5224954026       16.8005951277       -6.1479999887  MEMB      136             0.0000000000
     17003       136  DOPC      H14Y           22.3059359505       18.0878534881       -5.6274881984  MEMB      136             0.0000000000
     17004       136  DOPC      C315           22.3706006910       16.4977320843       -4.2944735936  MEMB      136             0.0000000000
     17005       136  DOPC      H15X           22.1079857666       15.4212839922       -4.3758009457  MEMB      136             0.0000000000
     17006       136  DOPC      H15Y           21.4914894075       17.0194617760       -3.8594085138  MEMB      136             0.0000000000
     17007       136  DOPC      C316           23.7026427721       16.6689874027       -3.5084520786  MEMB      136             0.0000000000
     17008       136  DOPC      H16X           24.4404644888       15.9323281257       -3.8922143251  MEMB      136             0.0000000000
     17009       136  DOPC      H16Y           24.1272613469       17.6850537395       -3.6555219636  MEMB      136             0.0000000000
     17010       136  DOPC      C317           23.5511898655       16.4192154895       -1.9944673867  MEMB      136             0.0000000000
     17011       136  DOPC      H17X           23.1457250351       15.3933874647       -1.8618169790  MEMB      136             0.0000000000
     17012       136  DOPC      H17Y           24.5594380296       16.5631740765       -1.5505840308  MEMB      136             0.0000000000
     17013       136  DOPC      C318           22.6284218215       17.3466049112       -1.2255085618  MEMB      136             0.0000000000
     17014       136  DOPC      H18X           23.2762674016       18.1791495097       -0.8769587217  MEMB      136             0.0000000000
     17015       136  DOPC      H18Y           21.7373054275       17.6545440108       -1.8132211657  MEMB      136             0.0000000000
     17016       136  DOPC      H18Z           22.3121733703       16.9441023972       -0.2394556948  MEMB      136             0.0000000000
     17017       137  DOPE      N             -25.2254555683       -4.1141964095      -18.6518590004  MEMB      137             0.0000000000
     17018       137  DOPE      HN1           -26.0153543119       -3.6503957452      -19.1443515830  MEMB      137             0.0000000000
     17019       137  DOPE      HN2           -25.5659636272       -4.6255611757      -17.8127164454  MEMB      137             0.0000000000
     17020       137  DOPE      HN3           -24.4640670287       -3.4381831578      -18.4399781736  MEMB      137             0.0000000000
     17021       137  DOPE      C12           -24.6032456802       -5.0241368461      -19.6554992392  MEMB      137             0.0000000000
     17022       137  DOPE      H12A          -23.6636888026       -5.4806845744      -19.2771897762  MEMB      137             0.0000000000
     17023       137  DOPE      H12B          -24.3545430590       -4.3044312002      -20.4645060892  MEMB      137             0.0000000000
     17024       137  DOPE      C11           -25.6640375491       -6.0812308805      -20.0358038224  MEMB      137             0.0000000000
     17025       137  DOPE      H11A          -25.2537051087       -6.6103713111      -20.9223469401  MEMB      137             0.0000000000
     17026       137  DOPE      H11B          -26.6200428491       -5.6398774604      -20.3901793180  MEMB      137             0.0000000000
     17027       137  DOPE      P             -25.1823062811       -8.2693628106      -18.7804574348  MEMB      137             0.0000000000
     17028       137  DOPE      O13           -24.1045319889       -8.0190807188      -17.8626484053  MEMB      137             0.0000000000
     17029       137  DOPE      O14           -24.7060291492       -8.8204734064      -20.0199006412  MEMB      137             0.0000000000
     17030       137  DOPE      O11           -26.2288929272       -9.1470716240      -18.0742969670  MEMB      137             0.0000000000
     17031       137  DOPE      O12           -25.9545376557       -6.9080885801      -18.9195344750  MEMB      137             0.0000000000
     17032       137  DOPE      C1            -27.4345341003       -8.6941568245      -17.5673513232  MEMB      137             0.0000000000
     17033       137  DOPE      HA            -28.0379901889       -9.6203863362      -17.4566227514  MEMB      137             0.0000000000
     17034       137  DOPE      HB            -28.0126190237       -8.0821475877      -18.2923227086  MEMB      137             0.0000000000
     17035       137  DOPE      C2            -27.1516260108       -8.0230667382      -16.1323982286  MEMB      137             0.0000000000
     17036       137  DOPE      HS            -26.7198491081       -7.0095147586      -16.2759328174  MEMB      137             0.0000000000
     17037       137  DOPE      O21           -26.4058847873       -8.9604184882      -15.3521938871  MEMB      137             0.0000000000
     17038       137  DOPE      C21           -25.5414062485       -8.5284784453      -14.5015666433  MEMB      137             0.0000000000
     17039       137  DOPE      O22           -25.2015456559       -7.3694600016      -14.2807742640  MEMB      137             0.0000000000
     17040       137  DOPE      C22           -24.8382845659       -9.6681139616      -13.8390301537  MEMB      137             0.0000000000
     17041       137  DOPE      H2R           -23.8942487640       -9.2476313685      -13.4312166764  MEMB      137             0.0000000000
     17042       137  DOPE      H2S           -24.5884892680      -10.2749880639      -14.7354826854  MEMB      137             0.0000000000
     17043       137  DOPE      C3            -28.5068647707       -7.7448993630      -15.3349333627  MEMB      137             0.0000000000
     17044       137  DOPE      HX            -29.1663653669       -8.6387849102      -15.3162602688  MEMB      137             0.0000000000
     17045       137  DOPE      HY            -29.0554727444       -6.9398562186      -15.8690266027  MEMB      137             0.0000000000
     17046       137  DOPE      O31           -28.2555453062       -7.3933207990      -13.9806928646  MEMB      137             0.0000000000
     17047       137  DOPE      C31           -29.2872426517       -7.2156002037      -13.2105617197  MEMB      137             0.0000000000
     17048       137  DOPE      O32           -30.4335253714       -7.1072188207      -13.6008941953  MEMB      137             0.0000000000
     17049       137  DOPE      C32           -28.7961067219       -7.1293375616      -11.7681760499  MEMB      137             0.0000000000
     17050       137  DOPE      H2X           -28.6264519371       -8.1722361803      -11.4248092148  MEMB      137             0.0000000000
     17051       137  DOPE      H2Y           -27.8391233264       -6.5683233920      -11.7067997012  MEMB      137             0.0000000000
     17052       137  DOPE      C23           -25.6561446973      -10.4734233365      -12.8298897325  MEMB      137             0.0000000000
     17053       137  DOPE      H3R           -25.0375737868      -11.3883182816      -12.7088171308  MEMB      137             0.0000000000
     17054       137  DOPE      H3S           -26.5913188893      -10.9044154343      -13.2470421421  MEMB      137             0.0000000000
     17055       137  DOPE      C24           -25.8444140873       -9.8182214071      -11.4514513669  MEMB      137             0.0000000000
     17056       137  DOPE      H4R           -26.6637032148       -9.0689641964      -11.4926810478  MEMB      137             0.0000000000
     17057       137  DOPE      H4S           -24.9595717001       -9.2901425527      -11.0361108422  MEMB      137             0.0000000000
     17058       137  DOPE      C25           -26.3260855002      -10.8136615932      -10.3485995998  MEMB      137             0.0000000000
     17059       137  DOPE      H5R           -25.4160571038      -11.1920856484       -9.8357994349  MEMB      137             0.0000000000
     17060       137  DOPE      H5S           -26.9868986182      -11.6165064273      -10.7398632706  MEMB      137             0.0000000000
     17061       137  DOPE      C26           -27.2386073758      -10.2721966598       -9.1726300256  MEMB      137             0.0000000000
     17062       137  DOPE      H6R           -28.2679911031      -10.6183528935       -9.4068647484  MEMB      137             0.0000000000
     17063       137  DOPE      H6S           -27.2381591656       -9.1732991953       -9.3361711667  MEMB      137             0.0000000000
     17064       137  DOPE      C27           -26.7891659844      -10.7473831842       -7.8020961767  MEMB      137             0.0000000000
     17065       137  DOPE      H7R           -26.4614299852      -11.7774382014       -8.0587990453  MEMB      137             0.0000000000
     17066       137  DOPE      H7S           -27.6897428590      -10.7510393403       -7.1515040762  MEMB      137             0.0000000000
     17067       137  DOPE      C28           -25.6441269020       -9.8254899409       -7.2591041407  MEMB      137             0.0000000000
     17068       137  DOPE      H8R           -26.1091104369       -8.9595638770       -6.7411433602  MEMB      137             0.0000000000
     17069       137  DOPE      H8S           -25.1228245489       -9.5089958627       -8.1877573053  MEMB      137             0.0000000000
     17070       137  DOPE      C29           -24.8066795169      -10.4831916290       -6.1397126190  MEMB      137             0.0000000000
     17071       137  DOPE      H9R           -25.1723271884      -11.4836507861       -5.8651526019  MEMB      137             0.0000000000
     17072       137  DOPE      C210          -23.8021834420       -9.8818485682       -5.4767679777  MEMB      137             0.0000000000
     17073       137  DOPE      H10R          -23.4228666143      -10.3625224310       -4.5629456859  MEMB      137             0.0000000000
     17074       137  DOPE      C211          -23.1900780174       -8.4921580671       -5.6202991672  MEMB      137             0.0000000000
     17075       137  DOPE      H11R          -23.8021363580       -7.9494630256       -6.3720891379  MEMB      137             0.0000000000
     17076       137  DOPE      H11S          -22.1137717931       -8.4711276779       -5.8949700168  MEMB      137             0.0000000000
     17077       137  DOPE      C212          -23.3501357604       -7.8322287872       -4.2940100844  MEMB      137             0.0000000000
     17078       137  DOPE      H12R          -24.3522878107       -8.0117543419       -3.8492812938  MEMB      137             0.0000000000
     17079       137  DOPE      H12S          -23.3012374400       -6.7337345295       -4.4528828390  MEMB      137             0.0000000000
     17080       137  DOPE      C213          -22.4020692935       -8.2603803785       -3.1753308379  MEMB      137             0.0000000000
     17081       137  DOPE      H13R          -21.3804867577       -8.2165243259       -3.6098051390  MEMB      137             0.0000000000
     17082       137  DOPE      H13S          -22.6105388438       -9.3189167596       -2.9100725251  MEMB      137             0.0000000000
     17083       137  DOPE      C214          -22.4597186818       -7.2907104631       -2.0117918936  MEMB      137             0.0000000000
     17084       137  DOPE      H14R          -22.7114414256       -6.2673671313       -2.3635367440  MEMB      137             0.0000000000
     17085       137  DOPE      H14S          -21.5403378693       -7.4089947141       -1.3993632601  MEMB      137             0.0000000000
     17086       137  DOPE      C215          -23.6489768331       -7.6575699230       -1.0531113316  MEMB      137             0.0000000000
     17087       137  DOPE      H15R          -24.3945050667       -8.2373531537       -1.6382268903  MEMB      137             0.0000000000
     17088       137  DOPE      H15S          -24.1933915872       -6.7124475105       -0.8417413066  MEMB      137             0.0000000000
     17089       137  DOPE      C216          -23.2818213711       -8.4405014503        0.1785506964  MEMB      137             0.0000000000
     17090       137  DOPE      H16R          -22.5404447351       -7.9417070579        0.8387672451  MEMB      137             0.0000000000
     17091       137  DOPE      H16S          -22.9748098996       -9.4818737413       -0.0572644645  MEMB      137             0.0000000000
     17092       137  DOPE      C217          -24.5733029775       -8.6118192978        1.0709642178  MEMB      137             0.0000000000
     17093       137  DOPE      H17R          -25.3344702796       -9.1505346730        0.4670344984  MEMB      137             0.0000000000
     17094       137  DOPE      H17S          -25.0477038570       -7.6286462757        1.2774486831  MEMB      137             0.0000000000
     17095       137  DOPE      C218          -24.4967961949       -9.4045291617        2.3040787624  MEMB      137             0.0000000000
     17096       137  DOPE      H18R          -25.4974281717       -9.8284422365        2.5350647156  MEMB      137             0.0000000000
     17097       137  DOPE      H18S          -24.1560620664       -8.8266175390        3.1896519481  MEMB      137             0.0000000000
     17098       137  DOPE      H18T          -23.9345764923      -10.3442257185        2.1164614565  MEMB      137             0.0000000000
     17099       137  DOPE      C33           -29.9186891479       -6.3928574532      -10.8801780572  MEMB      137             0.0000000000
     17100       137  DOPE      H3X           -30.7284134013       -7.1129279279      -11.1254649694  MEMB      137             0.0000000000
     17101       137  DOPE      H3Y           -30.1797039930       -5.3930745300      -11.2883770622  MEMB      137             0.0000000000
     17102       137  DOPE      C34           -29.5733604667       -6.4576278249       -9.3309679956  MEMB      137             0.0000000000
     17103       137  DOPE      H4X           -30.3235544620       -5.9774888919       -8.6668920360  MEMB      137             0.0000000000
     17104       137  DOPE      H4Y           -29.5195819250       -7.5071770426       -8.9705864309  MEMB      137             0.0000000000
     17105       137  DOPE      C35           -28.2439873406       -5.7575435453       -8.9733713095  MEMB      137             0.0000000000
     17106       137  DOPE      H5X           -28.2832064464       -4.6609591428       -9.1473982159  MEMB      137             0.0000000000
     17107       137  DOPE      H5Y           -27.3686051975       -6.1061986898       -9.5619851545  MEMB      137             0.0000000000
     17108       137  DOPE      C36           -27.9837718015       -6.0052989645       -7.3980978018  MEMB      137             0.0000000000
     17109       137  DOPE      H6X           -27.9554004613       -7.1157800981       -7.3794494364  MEMB      137             0.0000000000
     17110       137  DOPE      H6Y           -28.9592982776       -5.8021398519       -6.9067775512  MEMB      137             0.0000000000
     17111       137  DOPE      C37           -26.7568106704       -5.2658418058       -6.9167902135  MEMB      137             0.0000000000
     17112       137  DOPE      H7X           -25.8925133555       -5.3816377193       -7.6051960506  MEMB      137             0.0000000000
     17113       137  DOPE      H7Y           -27.0461276514       -4.2088485785       -7.0994970828  MEMB      137             0.0000000000
     17114       137  DOPE      C38           -26.2701571952       -5.5491148103       -5.5007222797  MEMB      137             0.0000000000
     17115       137  DOPE      H8X           -25.3169347293       -4.9938402256       -5.3689716809  MEMB      137             0.0000000000
     17116       137  DOPE      H8Y           -25.9026549965       -6.5975059564       -5.5125267165  MEMB      137             0.0000000000
     17117       137  DOPE      C39           -27.2320798706       -5.2395240824       -4.3790406046  MEMB      137             0.0000000000
     17118       137  DOPE      H9X           -27.3193463133       -4.1729929556       -4.1242937898  MEMB      137             0.0000000000
     17119       137  DOPE      C310          -27.7816673233       -6.1063550631       -3.5746165413  MEMB      137             0.0000000000
     17120       137  DOPE      H10X          -28.2556707344       -5.6065474376       -2.7169965523  MEMB      137             0.0000000000
     17121       137  DOPE      C311          -27.6000788226       -7.5708527154       -3.6189631713  MEMB      137             0.0000000000
     17122       137  DOPE      H11X          -27.0412886600       -7.9935560495       -4.4811668604  MEMB      137             0.0000000000
     17123       137  DOPE      H11Y          -27.0498871054       -7.8478498848       -2.6943646661  MEMB      137             0.0000000000
     17124       137  DOPE      C312          -28.9949617076       -8.2752239022       -3.5254189900  MEMB      137             0.0000000000
     17125       137  DOPE      H12X          -29.4832484402       -8.1878014952       -4.5195286586  MEMB      137             0.0000000000
     17126       137  DOPE      H12Y          -29.6438326422       -7.8358614480       -2.7378609204  MEMB      137             0.0000000000
     17127       137  DOPE      C313          -28.8893904766       -9.7504666441       -3.3362680918  MEMB      137             0.0000000000
     17128       137  DOPE      H13X          -29.7696004907      -10.3473308623       -3.6576781457  MEMB      137             0.0000000000
     17129       137  DOPE      H13Y          -28.0483773362      -10.1660391985       -3.9315140006  MEMB      137             0.0000000000
     17130       137  DOPE      C314          -28.5401012267      -10.1846786508       -1.9326029442  MEMB      137             0.0000000000
     17131       137  DOPE      H14X          -29.5370974038      -10.4440975617       -1.5166447014  MEMB      137             0.0000000000
     17132       137  DOPE      H14Y          -28.1042593029       -9.2769467930       -1.4631506420  MEMB      137             0.0000000000
     17133       137  DOPE      C315          -27.5430149218      -11.3296411225       -1.8542533196  MEMB      137             0.0000000000
     17134       137  DOPE      H15X          -26.5533551867      -11.1528009496       -2.3271403049  MEMB      137             0.0000000000
     17135       137  DOPE      H15Y          -27.9466614165      -12.2390867985       -2.3485200100  MEMB      137             0.0000000000
     17136       137  DOPE      C316          -27.2686992426      -11.6893362761       -0.4071974759  MEMB      137             0.0000000000
     17137       137  DOPE      H16X          -28.2392739536      -12.1312422974       -0.0957082355  MEMB      137             0.0000000000
     17138       137  DOPE      H16Y          -27.0741818598      -10.7315089176        0.1210548301  MEMB      137             0.0000000000
     17139       137  DOPE      C317          -26.0684431367      -12.7028794596       -0.1029256815  MEMB      137             0.0000000000
     17140       137  DOPE      H17X          -26.1969896549      -12.9884153362        0.9630315916  MEMB      137             0.0000000000
     17141       137  DOPE      H17Y          -26.2807456289      -13.5787886775       -0.7525658205  MEMB      137             0.0000000000
     17142       137  DOPE      C318          -24.6325207777      -12.1898965155       -0.3168738750  MEMB      137             0.0000000000
     17143       137  DOPE      H18X          -23.9438459161      -12.8543454120        0.2475341366  MEMB      137             0.0000000000
     17144       137  DOPE      H18Y          -24.2149053727      -12.0827637349       -1.3408073681  MEMB      137             0.0000000000
     17145       137  DOPE      H18Z          -24.4441840745      -11.1888072388        0.1266017380  MEMB      137             0.0000000000
     17146       138  CHL1      C3             -4.0740047549       26.1615279026      -17.3295600000  MEMB      138             0.0000000000
     17147       138  CHL1      H3             -2.9874709965       25.9745694423      -17.1924300000  MEMB      138             0.0000000000
     17148       138  CHL1      O3             -4.5274538451       26.1718364974      -18.6704400000  MEMB      138             0.0000000000
     17149       138  CHL1      H3'            -4.3791112154       25.3149582935      -19.0770600000  MEMB      138             0.0000000000
     17150       138  CHL1      C4             -4.9337505346       25.1345481259      -16.5871400000  MEMB      138             0.0000000000
     17151       138  CHL1      H4A            -6.0234585092       25.2096256278      -16.7901900000  MEMB      138             0.0000000000
     17152       138  CHL1      H4B            -4.5449614810       24.1692145375      -16.9761200000  MEMB      138             0.0000000000
     17153       138  CHL1      C5             -4.7700365148       25.2770663097      -15.0810200000  MEMB      138             0.0000000000
     17154       138  CHL1      C6             -4.3396006386       24.2320159818      -14.2819800000  MEMB      138             0.0000000000
     17155       138  CHL1      H6             -4.1187026521       23.2550045489      -14.7365600000  MEMB      138             0.0000000000
     17156       138  CHL1      C7             -4.2035394986       24.1558597457      -12.8020700000  MEMB      138             0.0000000000
     17157       138  CHL1      H7A            -4.5791930752       23.2311227923      -12.3141700000  MEMB      138             0.0000000000
     17158       138  CHL1      H7B            -3.1131899395       24.1224630172      -12.5915000000  MEMB      138             0.0000000000
     17159       138  CHL1      C8             -4.7695124094       25.4113641571      -12.1766100000  MEMB      138             0.0000000000
     17160       138  CHL1      H8             -5.8701942336       25.2975871342      -12.0772500000  MEMB      138             0.0000000000
     17161       138  CHL1      C14            -4.2506435077       25.5587411695      -10.7562000000  MEMB      138             0.0000000000
     17162       138  CHL1      H14            -3.1552998549       25.7346749107      -10.8160500000  MEMB      138             0.0000000000
     17163       138  CHL1      C15            -4.3227053312       24.3483359332       -9.8435200000  MEMB      138             0.0000000000
     17164       138  CHL1      H15A           -5.3644150239       23.9895522855       -9.7005800000  MEMB      138             0.0000000000
     17165       138  CHL1      H15B           -3.5665277933       23.5850762019      -10.1262400000  MEMB      138             0.0000000000
     17166       138  CHL1      C16            -4.0728472724       25.0288344879       -8.4706500000  MEMB      138             0.0000000000
     17167       138  CHL1      H16A           -4.8808853017       24.6701781023       -7.7977800000  MEMB      138             0.0000000000
     17168       138  CHL1      H16B           -3.0916189345       24.6820223100       -8.0817600000  MEMB      138             0.0000000000
     17169       138  CHL1      C17            -4.0033110897       26.5817759599       -8.6750200000  MEMB      138             0.0000000000
     17170       138  CHL1      H17            -2.9533398612       26.8287484631       -8.9412700000  MEMB      138             0.0000000000
     17171       138  CHL1      C13            -4.8085114478       26.7118829859       -9.9772700000  MEMB      138             0.0000000000
     17172       138  CHL1      C18            -6.3163069165       26.4557448931       -9.6664600000  MEMB      138             0.0000000000
     17173       138  CHL1      H18A           -6.7091861645       27.2534192460       -9.0003700000  MEMB      138             0.0000000000
     17174       138  CHL1      H18B           -6.9882362843       26.3965930484      -10.5492500000  MEMB      138             0.0000000000
     17175       138  CHL1      H18C           -6.5103499299       25.5640217148       -9.0328200000  MEMB      138             0.0000000000
     17176       138  CHL1      C12            -4.6218527518       28.0352595815      -10.6934400000  MEMB      138             0.0000000000
     17177       138  CHL1      H12A           -5.2036930271       28.8734769074      -10.2539400000  MEMB      138             0.0000000000
     17178       138  CHL1      H12B           -3.5247949573       28.1853360177      -10.7843900000  MEMB      138             0.0000000000
     17179       138  CHL1      C11            -5.1036900756       27.9073422180      -12.1521100000  MEMB      138             0.0000000000
     17180       138  CHL1      H11A           -6.2135395928       27.8579716164      -12.1416000000  MEMB      138             0.0000000000
     17181       138  CHL1      H11B           -4.7528435724       28.8185810229      -12.6820800000  MEMB      138             0.0000000000
     17182       138  CHL1      C9             -4.5351557640       26.7034142763      -12.9748400000  MEMB      138             0.0000000000
     17183       138  CHL1      H9             -3.4465737964       26.8830916138      -13.1052800000  MEMB      138             0.0000000000
     17184       138  CHL1      C10            -4.9471785455       26.6657969663      -14.4927100000  MEMB      138             0.0000000000
     17185       138  CHL1      C19            -6.4281128016       27.0303978705      -14.5222100000  MEMB      138             0.0000000000
     17186       138  CHL1      H19A           -6.9673297930       26.4329675658      -13.7563000000  MEMB      138             0.0000000000
     17187       138  CHL1      H19B           -6.5540820102       28.1341523492      -14.5090500000  MEMB      138             0.0000000000
     17188       138  CHL1      H19C           -6.8784297317       26.8838480168      -15.5272200000  MEMB      138             0.0000000000
     17189       138  CHL1      C1             -4.0925141492       27.7910227472      -15.2524100000  MEMB      138             0.0000000000
     17190       138  CHL1      H1A            -4.4878505749       28.7339986720      -14.8178700000  MEMB      138             0.0000000000
     17191       138  CHL1      H1B            -2.9879733716       27.7213086824      -15.1552600000  MEMB      138             0.0000000000
     17192       138  CHL1      C2             -4.2859198604       27.6452791705      -16.7889300000  MEMB      138             0.0000000000
     17193       138  CHL1      H2A            -3.5909801411       28.3189390759      -17.3344100000  MEMB      138             0.0000000000
     17194       138  CHL1      H2B            -5.3373617698       27.8861010055      -17.0550400000  MEMB      138             0.0000000000
     17195       138  CHL1      C20            -4.2409228632       27.3908499333       -7.3567300000  MEMB      138             0.0000000000
     17196       138  CHL1      H20            -5.2486306960       27.0477373584       -7.0387500000  MEMB      138             0.0000000000
     17197       138  CHL1      C21            -4.2582593214       28.8583985066       -7.5477900000  MEMB      138             0.0000000000
     17198       138  CHL1      H21A           -4.1200257646       29.2889732066       -6.5329900000  MEMB      138             0.0000000000
     17199       138  CHL1      H21B           -5.1910930317       29.2300371949       -8.0232200000  MEMB      138             0.0000000000
     17200       138  CHL1      H21C           -3.3525574495       29.1399786758       -8.1263600000  MEMB      138             0.0000000000
     17201       138  CHL1      C22            -3.4025723574       26.8603561973       -6.1378700000  MEMB      138             0.0000000000
     17202       138  CHL1      H22A           -2.5255390512       26.3729553593       -6.6149000000  MEMB      138             0.0000000000
     17203       138  CHL1      H22B           -2.9983586536       27.6261831210       -5.4418600000  MEMB      138             0.0000000000
     17204       138  CHL1      C23            -4.2010016741       25.8124111308       -5.3417500000  MEMB      138             0.0000000000
     17205       138  CHL1      H23A           -5.0508426020       26.3103958557       -4.8278600000  MEMB      138             0.0000000000
     17206       138  CHL1      H23B           -4.6800159228       24.9266165907       -5.8110400000  MEMB      138             0.0000000000
     17207       138  CHL1      C24            -3.3049773804       25.1615583179       -4.2761800000  MEMB      138             0.0000000000
     17208       138  CHL1      H24A           -2.3639282011       24.7446153906       -4.6943800000  MEMB      138             0.0000000000
     17209       138  CHL1      H24B           -3.0185035288       25.9568644587       -3.5552400000  MEMB      138             0.0000000000
     17210       138  CHL1      C25            -3.8405008587       23.8578205598       -3.5509100000  MEMB      138             0.0000000000
     17211       138  CHL1      H25            -4.6859693995       24.1467018409       -2.8905700000  MEMB      138             0.0000000000
     17212       138  CHL1      C26            -4.3800465120       22.6870748414       -4.4522400000  MEMB      138             0.0000000000
     17213       138  CHL1      H26A           -4.9675639878       23.0631402508       -5.3169400000  MEMB      138             0.0000000000
     17214       138  CHL1      H26B           -3.5328788295       22.1446172016       -4.9238000000  MEMB      138             0.0000000000
     17215       138  CHL1      H26C           -5.0662579483       22.0112508943       -3.8984400000  MEMB      138             0.0000000000
     17216       138  CHL1      C27            -2.8129297190       23.3426065829       -2.5253100000  MEMB      138             0.0000000000
     17217       138  CHL1      H27A           -3.1934525024       22.5676254258       -1.8260600000  MEMB      138             0.0000000000
     17218       138  CHL1      H27B           -1.9296331042       22.8970606367       -3.0308800000  MEMB      138             0.0000000000
     17219       138  CHL1      H27C           -2.5307108282       24.1563485504       -1.8235200000  MEMB      138             0.0000000000
     17220       139  23SM      N              19.0837791325      -19.5537739537      -27.8593592636  MEMB      139             0.0000000000
     17221       139  23SM      C15            19.9242303265      -20.7207223273      -28.3824511586  MEMB      139             0.0000000000
     17222       139  23SM      H15A           20.9765635830      -20.4782839040      -28.3972329751  MEMB      139             0.0000000000
     17223       139  23SM      H15B           19.7061807609      -20.9097320858      -29.4231862318  MEMB      139             0.0000000000
     17224       139  23SM      H15C           19.7265362874      -21.5426717411      -27.7103527489  MEMB      139             0.0000000000
     17225       139  23SM      C14            19.3662345451      -18.4565187613      -28.8457194509  MEMB      139             0.0000000000
     17226       139  23SM      H14A           20.3790933630      -18.0840187800      -28.8037593974  MEMB      139             0.0000000000
     17227       139  23SM      H14B           18.7754483227      -17.5852640599      -28.6042924811  MEMB      139             0.0000000000
     17228       139  23SM      H14C           19.1656092137      -18.7555966745      -29.8639049373  MEMB      139             0.0000000000
     17229       139  23SM      C13            17.6202442332      -19.9719073238      -27.8818904353  MEMB      139             0.0000000000
     17230       139  23SM      H13A           17.4130408124      -20.7341395839      -27.1453656530  MEMB      139             0.0000000000
     17231       139  23SM      H13B           17.5376640851      -20.4430350025      -28.8501978954  MEMB      139             0.0000000000
     17232       139  23SM      H13C           16.9480085841      -19.1404667805      -27.7295557667  MEMB      139             0.0000000000
     17233       139  23SM      C12            19.5384333729      -19.1160185570      -26.4332572273  MEMB      139             0.0000000000
     17234       139  23SM      H12A           19.0391590781      -18.1806122646      -26.2279764513  MEMB      139             0.0000000000
     17235       139  23SM      H12B           20.5809273758      -18.8464555255      -26.5165772809  MEMB      139             0.0000000000
     17236       139  23SM      C11            19.3430768664      -20.0478841886      -25.2775935383  MEMB      139             0.0000000000
     17237       139  23SM      H11A           19.7746544411      -19.4977688075      -24.4142078497  MEMB      139             0.0000000000
     17238       139  23SM      H11B           19.8573512103      -21.0160739013      -25.4577364761  MEMB      139             0.0000000000
     17239       139  23SM      P              16.9287215459      -19.5181624435      -24.2730904975  MEMB      139             0.0000000000
     17240       139  23SM      O13            17.2798055664      -18.0815097756      -24.2544576803  MEMB      139             0.0000000000
     17241       139  23SM      O14            15.6036155553      -19.9025925612      -24.8927811481  MEMB      139             0.0000000000
     17242       139  23SM      O11            16.9321952046      -20.1255553020      -22.8169236153  MEMB      139             0.0000000000
     17243       139  23SM      O12            17.9780307557      -20.4169440574      -25.0824759799  MEMB      139             0.0000000000
     17244       139  23SM      C1S            17.2801649532      -21.4079091318      -22.4942619122  MEMB      139             0.0000000000
     17245       139  23SM      H1S            18.1776791926      -21.8128084662      -23.0088936136  MEMB      139             0.0000000000
     17246       139  23SM      H1T            16.3943155275      -22.0258173688      -22.7546104152  MEMB      139             0.0000000000
     17247       139  23SM      NF             18.5398667063      -22.5905523278      -20.7391097952  MEMB      139             0.0000000000
     17248       139  23SM      HNF            18.1414716491      -23.4440421215      -20.4122377047  MEMB      139             0.0000000000
     17249       139  23SM      C2S            17.5540422936      -21.4837055606      -20.9345275433  MEMB      139             0.0000000000
     17250       139  23SM      H2S            17.9832923682      -20.5291827964      -20.5617653649  MEMB      139             0.0000000000
     17251       139  23SM      C3S            16.3225275287      -21.8178836421      -20.0793765020  MEMB      139             0.0000000000
     17252       139  23SM      H3S            16.0055920321      -22.8711314268      -20.2360357301  MEMB      139             0.0000000000
     17253       139  23SM      O3             15.2765636251      -20.8849199505      -20.4296449766  MEMB      139             0.0000000000
     17254       139  23SM      HO3            15.6289584874      -20.2249992277      -21.0312451152  MEMB      139             0.0000000000
     17255       139  23SM      C4S            16.6009485436      -21.7898686328      -18.5650830338  MEMB      139             0.0000000000
     17256       139  23SM      H4S            16.7759718296      -22.7537561562      -18.0647957345  MEMB      139             0.0000000000
     17257       139  23SM      C5S            16.6120781909      -20.6942740129      -17.7878160783  MEMB      139             0.0000000000
     17258       139  23SM      H5S            16.4109631008      -19.7475085350      -18.3104896875  MEMB      139             0.0000000000
     17259       139  23SM      C6S            16.8495852976      -20.5427547685      -16.3147434312  MEMB      139             0.0000000000
     17260       139  23SM      H6S            16.4209236547      -19.6617469057      -15.7909161860  MEMB      139             0.0000000000
     17261       139  23SM      H6T            17.9139688098      -20.2250021699      -16.3357707613  MEMB      139             0.0000000000
     17262       139  23SM      C7S            16.6252980150      -21.7216999218      -15.2952553550  MEMB      139             0.0000000000
     17263       139  23SM      H7S            17.3863026974      -21.5973608030      -14.4954226726  MEMB      139             0.0000000000
     17264       139  23SM      H7T            16.6988305405      -22.7654607206      -15.6687221785  MEMB      139             0.0000000000
     17265       139  23SM      C8S            15.3199270329      -21.7084777033      -14.4323020662  MEMB      139             0.0000000000
     17266       139  23SM      H8S            14.4539604648      -21.7865548708      -15.1239141557  MEMB      139             0.0000000000
     17267       139  23SM      H8T            15.2479590983      -20.7577655814      -13.8619620684  MEMB      139             0.0000000000
     17268       139  23SM      C9S            15.2105529442      -22.8832514870      -13.4645617807  MEMB      139             0.0000000000
     17269       139  23SM      H9S            15.8310111643      -23.7261144598      -13.8373008696  MEMB      139             0.0000000000
     17270       139  23SM      H9T            14.1299813135      -23.1124495801      -13.3455896144  MEMB      139             0.0000000000
     17271       139  23SM      C10S           15.6387431437      -22.5838130363      -12.0090645635  MEMB      139             0.0000000000
     17272       139  23SM      H10S           14.9706399285      -21.7589159048      -11.6811867741  MEMB      139             0.0000000000
     17273       139  23SM      H10T           16.6071959856      -22.0505763222      -11.8991621477  MEMB      139             0.0000000000
     17274       139  23SM      C11S           15.4322380209      -23.8259848708      -11.0758283928  MEMB      139             0.0000000000
     17275       139  23SM      H11S           16.1761369927      -24.6026891568      -11.3545146450  MEMB      139             0.0000000000
     17276       139  23SM      H11T           14.4456779260      -24.3083962848      -11.2440528819  MEMB      139             0.0000000000
     17277       139  23SM      C12S           15.6864879145      -23.5304801750       -9.6552766018  MEMB      139             0.0000000000
     17278       139  23SM      H12S           15.2480267556      -24.3405887004       -9.0341507353  MEMB      139             0.0000000000
     17279       139  23SM      H12T           15.1373011825      -22.6038394135       -9.3831526760  MEMB      139             0.0000000000
     17280       139  23SM      C13S           17.1740876859      -23.3743857271       -9.3023713176  MEMB      139             0.0000000000
     17281       139  23SM      H13S           17.7072885849      -22.7918069537      -10.0837932998  MEMB      139             0.0000000000
     17282       139  23SM      H13T           17.5608251723      -24.4112882540       -9.2044529027  MEMB      139             0.0000000000
     17283       139  23SM      C14S           17.4298898118      -22.7257699711       -7.9203724426  MEMB      139             0.0000000000
     17284       139  23SM      H14S           16.9955923177      -21.7034401049       -7.9437905485  MEMB      139             0.0000000000
     17285       139  23SM      H14T           18.5364312335      -22.6695166253       -7.8383805670  MEMB      139             0.0000000000
     17286       139  23SM      C15S           16.8429946634      -23.5445513410       -6.7591703350  MEMB      139             0.0000000000
     17287       139  23SM      H15S           16.5287987698      -24.5196079180       -7.1891308548  MEMB      139             0.0000000000
     17288       139  23SM      H15T           15.9846729189      -22.9766870169       -6.3406787323  MEMB      139             0.0000000000
     17289       139  23SM      C16S           17.8261119836      -23.7124044641       -5.6580676436  MEMB      139             0.0000000000
     17290       139  23SM      H16S           17.9525500018      -22.7367828157       -5.1418348328  MEMB      139             0.0000000000
     17291       139  23SM      H16T           18.8102652125      -23.9970906254       -6.0878560617  MEMB      139             0.0000000000
     17292       139  23SM      C17S           17.3714578260      -24.7663505116       -4.6352527684  MEMB      139             0.0000000000
     17293       139  23SM      H17S           17.6275742595      -25.7999694446       -4.9520448001  MEMB      139             0.0000000000
     17294       139  23SM      H17T           16.2834244392      -24.5728645705       -4.5209398502  MEMB      139             0.0000000000
     17295       139  23SM      C18S           18.0495853189      -24.4615518251       -3.3019526286  MEMB      139             0.0000000000
     17296       139  23SM      H18S           17.3299617231      -24.8273527130       -2.5386363733  MEMB      139             0.0000000000
     17297       139  23SM      H18T           18.2339673256      -23.3715598252       -3.1913095043  MEMB      139             0.0000000000
     17298       139  23SM      H18U           19.0486042961      -24.9309846724       -3.1757999372  MEMB      139             0.0000000000
     17299       139  23SM      C1F            19.7690958435      -22.5062700854      -21.1792784457  MEMB      139             0.0000000000
     17300       139  23SM      OF             20.4446567273      -21.4772805004      -21.1226136369  MEMB      139             0.0000000000
     17301       139  23SM      C2F            20.3965549244      -23.7855337553      -21.6452376812  MEMB      139             0.0000000000
     17302       139  23SM      H2F            20.9841101851      -23.6218372793      -22.5738405087  MEMB      139             0.0000000000
     17303       139  23SM      H2G            19.6176330103      -24.5562546508      -21.8285149628  MEMB      139             0.0000000000
     17304       139  23SM      C3F            21.2756942065      -24.3680131483      -20.5681128430  MEMB      139             0.0000000000
     17305       139  23SM      H3F            22.2195347501      -23.7958262858      -20.4412741320  MEMB      139             0.0000000000
     17306       139  23SM      H3G            21.6375963955      -25.3669449108      -20.8928942588  MEMB      139             0.0000000000
     17307       139  23SM      C4F            20.7776427490      -24.4584319235      -19.0702179459  MEMB      139             0.0000000000
     17308       139  23SM      H4F            21.1537607248      -25.3796769582      -18.5760882598  MEMB      139             0.0000000000
     17309       139  23SM      H4G            19.6677102739      -24.4419977958      -19.1160533664  MEMB      139             0.0000000000
     17310       139  23SM      C5F            21.3269966223      -23.3177200053      -18.2398203477  MEMB      139             0.0000000000
     17311       139  23SM      H5F            21.0895037250      -22.3130234486      -18.6503119563  MEMB      139             0.0000000000
     17312       139  23SM      H5G            22.4375186737      -23.3425637028      -18.2187373037  MEMB      139             0.0000000000
     17313       139  23SM      C6F            20.7605134888      -23.4881799373      -16.8501903422  MEMB      139             0.0000000000
     17314       139  23SM      H6F            20.8973852915      -24.4680581155      -16.3447937494  MEMB      139             0.0000000000
     17315       139  23SM      H6G            19.6721714496      -23.2950926630      -16.9622172444  MEMB      139             0.0000000000
     17316       139  23SM      C7F            21.1936117814      -22.3860379333      -15.8495660913  MEMB      139             0.0000000000
     17317       139  23SM      H7F            20.7984851178      -21.4030470465      -16.1841186412  MEMB      139             0.0000000000
     17318       139  23SM      H7G            22.2917497800      -22.5485383742      -15.8047614866  MEMB      139             0.0000000000
     17319       139  23SM      C8F            20.7924523945      -22.6585294499      -14.3883932379  MEMB      139             0.0000000000
     17320       139  23SM      H8F            20.9249619873      -23.7274140719      -14.1159098439  MEMB      139             0.0000000000
     17321       139  23SM      H8G            19.6939815499      -22.5756931285      -14.2440989141  MEMB      139             0.0000000000
     17322       139  23SM      C9F            21.6535292561      -21.8879589060      -13.4277328655  MEMB      139             0.0000000000
     17323       139  23SM      H9F            21.2899675455      -20.8468463262      -13.2927197615  MEMB      139             0.0000000000
     17324       139  23SM      H9G            22.6866472111      -21.8655703403      -13.8357614219  MEMB      139             0.0000000000
     17325       139  23SM      C10F           21.7557527148      -22.5384746887      -12.0418511667  MEMB      139             0.0000000000
     17326       139  23SM      H10F           22.6314359602      -23.2171792515      -11.9590272574  MEMB      139             0.0000000000
     17327       139  23SM      H10G           20.8493255154      -23.1540097681      -11.8579287998  MEMB      139             0.0000000000
     17328       139  23SM      C11F           21.8714945455      -21.5487955321      -10.8569582442  MEMB      139             0.0000000000
     17329       139  23SM      H11F           21.0016260395      -20.8590872992      -10.9011439773  MEMB      139             0.0000000000
     17330       139  23SM      H11G           22.7479296569      -20.8785518503      -10.9871710597  MEMB      139             0.0000000000
     17331       139  23SM      C12F           21.8991602870      -22.2461186212       -9.4913765127  MEMB      139             0.0000000000
     17332       139  23SM      H12F           22.9385838396      -22.5997579080       -9.3214962102  MEMB      139             0.0000000000
     17333       139  23SM      H12G           21.2548172476      -23.1489619453       -9.5547549896  MEMB      139             0.0000000000
     17334       139  23SM      C13F           21.3216316406      -21.3651836562       -8.2796298122  MEMB      139             0.0000000000
     17335       139  23SM      H13F           21.1458576808      -22.1016819454       -7.4666139222  MEMB      139             0.0000000000
     17336       139  23SM      H13G           20.4271315444      -20.7924685635       -8.6054954438  MEMB      139             0.0000000000
     17337       139  23SM      C14F           22.4503482244      -20.4487964984       -7.6978437213  MEMB      139             0.0000000000
     17338       139  23SM      H14F           22.8396971027      -19.8248247809       -8.5305431805  MEMB      139             0.0000000000
     17339       139  23SM      H14G           23.2583180022      -21.1764844011       -7.4698603356  MEMB      139             0.0000000000
     17340       139  23SM      C15F           22.1243363966      -19.7066815046       -6.3830115412  MEMB      139             0.0000000000
     17341       139  23SM      H15F           21.3417953039      -18.9562201035       -6.6254105062  MEMB      139             0.0000000000
     17342       139  23SM      H15G           23.0034440068      -19.0766591771       -6.1289206723  MEMB      139             0.0000000000
     17343       139  23SM      C16F           21.7311861696      -20.4930377115       -5.2046115604  MEMB      139             0.0000000000
     17344       139  23SM      H16F           22.3681149846      -20.4390727489       -4.2959144238  MEMB      139             0.0000000000
     17345       139  23SM      H16G           21.6558490384      -21.5458362011       -5.5513977401  MEMB      139             0.0000000000
     17346       139  23SM      C17F           20.3428466714      -20.1162902829       -4.7431179149  MEMB      139             0.0000000000
     17347       139  23SM      H17F           19.8060229438      -20.3079996004       -5.6967366060  MEMB      139             0.0000000000
     17348       139  23SM      H17G           20.2035689651      -19.0711959803       -4.3928312493  MEMB      139             0.0000000000
     17349       139  23SM      C18F           19.6909404398      -21.0326982713       -3.6427477495  MEMB      139             0.0000000000
     17350       139  23SM      H18F           19.9206550470      -22.0970810683       -3.8632958634  MEMB      139             0.0000000000
     17351       139  23SM      H18G           18.6047859739      -20.9281904975       -3.8517165004  MEMB      139             0.0000000000
     17352       139  23SM      C19F           20.0132679108      -20.5614871667       -2.2376408856  MEMB      139             0.0000000000
     17353       139  23SM      H19F           20.0090558007      -19.4517520477       -2.2904736559  MEMB      139             0.0000000000
     17354       139  23SM      H19G           21.0168189040      -20.9063457667       -1.9085833819  MEMB      139             0.0000000000
     17355       139  23SM      C20F           18.9375960781      -21.0223831644       -1.2705819564  MEMB      139             0.0000000000
     17356       139  23SM      H20F           19.0087551026      -22.1173919012       -1.0967618527  MEMB      139             0.0000000000
     17357       139  23SM      H20G           17.9441942774      -20.7878617076       -1.7092990574  MEMB      139             0.0000000000
     17358       139  23SM      C21F           18.9836574353      -20.2616608622        0.0626764061  MEMB      139             0.0000000000
     17359       139  23SM      H21F           18.7075055347      -19.2331094673       -0.2537772527  MEMB      139             0.0000000000
     17360       139  23SM      H21G           20.0306120585      -20.2791283845        0.4340282014  MEMB      139             0.0000000000
     17361       139  23SM      C22F           18.0423113548      -20.6561316064        1.1359506372  MEMB      139             0.0000000000
     17362       139  23SM      H22F           16.9847532790      -20.3869007567        0.9276079627  MEMB      139             0.0000000000
     17363       139  23SM      H22G           18.2956009037      -19.9465953512        1.9524822590  MEMB      139             0.0000000000
     17364       139  23SM      C23F           18.1397915418      -22.0283252308        1.6892212849  MEMB      139             0.0000000000
     17365       139  23SM      H23F           19.1626335379      -22.2446107274        2.0651665863  MEMB      139             0.0000000000
     17366       139  23SM      H23G           17.8440708613      -22.6012297041        0.7844273208  MEMB      139             0.0000000000
     17367       139  23SM      H23H           17.4665225398      -22.3023503709        2.5294237298  MEMB      139             0.0000000000
     17368       140  DOPC      N              26.2944319213       -5.6666566288      -20.8544133439  MEMB      140             0.0000000000
     17369       140  DOPC      C12            25.0114072818       -5.5938127771      -19.9404215784  MEMB      140             0.0000000000
     17370       140  DOPC      H12A           24.5434082745       -6.5656888700      -19.9936555066  MEMB      140             0.0000000000
     17371       140  DOPC      H12B           24.4296227018       -4.8402301874      -20.4503625280  MEMB      140             0.0000000000
     17372       140  DOPC      C13            27.1262278764       -6.8993190116      -20.5858732061  MEMB      140             0.0000000000
     17373       140  DOPC      H13A           27.5246026390       -6.7479448541      -19.5935106639  MEMB      140             0.0000000000
     17374       140  DOPC      H13B           26.4941801825       -7.7728349665      -20.6482080648  MEMB      140             0.0000000000
     17375       140  DOPC      H13C           27.9777125177       -7.1165367095      -21.2137188545  MEMB      140             0.0000000000
     17376       140  DOPC      C14            27.0830240430       -4.4363681988      -20.6503288832  MEMB      140             0.0000000000
     17377       140  DOPC      H14A           27.9188376024       -4.4480638604      -21.3341993058  MEMB      140             0.0000000000
     17378       140  DOPC      H14B           26.4707195974       -3.5884942417      -20.9197598881  MEMB      140             0.0000000000
     17379       140  DOPC      H14C           27.4753441078       -4.4162699291      -19.6443064109  MEMB      140             0.0000000000
     17380       140  DOPC      C15            25.8269789369       -5.7184854126      -22.2600355649  MEMB      140             0.0000000000
     17381       140  DOPC      H15A           25.0460278423       -6.4644444445      -22.2522609327  MEMB      140             0.0000000000
     17382       140  DOPC      H15B           26.6806382254       -5.8740167920      -22.9030566532  MEMB      140             0.0000000000
     17383       140  DOPC      H15C           25.3294815584       -4.7941722721      -22.5140857728  MEMB      140             0.0000000000
     17384       140  DOPC      C11            25.2025583659       -5.1113252395      -18.4299125904  MEMB      140             0.0000000000
     17385       140  DOPC      H11A           25.3116498320       -4.0167814376      -18.2737277040  MEMB      140             0.0000000000
     17386       140  DOPC      H11B           24.2880061304       -5.5239424002      -17.9527728535  MEMB      140             0.0000000000
     17387       140  DOPC      P              26.2544184384       -7.3264298296      -17.2976335565  MEMB      140             0.0000000000
     17388       140  DOPC      O13            27.6086767904       -7.8803844076      -17.3838643124  MEMB      140             0.0000000000
     17389       140  DOPC      O14            25.2520549211       -8.1052199436      -18.0669400015  MEMB      140             0.0000000000
     17390       140  DOPC      O12            26.2883616019       -5.7561790366      -17.7674519763  MEMB      140             0.0000000000
     17391       140  DOPC      O11            25.7690522258       -7.3525408474      -15.7631249835  MEMB      140             0.0000000000
     17392       140  DOPC      C1             26.4904454707       -6.6076356219      -14.7685748985  MEMB      140             0.0000000000
     17393       140  DOPC      HA             26.7740141979       -5.5852293261      -15.0981126420  MEMB      140             0.0000000000
     17394       140  DOPC      HB             27.3958742574       -7.1921725690      -14.4986933897  MEMB      140             0.0000000000
     17395       140  DOPC      C2             25.4983189592       -6.4235420142      -13.5863083554  MEMB      140             0.0000000000
     17396       140  DOPC      HS             25.9164221597       -6.0752261333      -12.6177080155  MEMB      140             0.0000000000
     17397       140  DOPC      O21            24.6873176931       -7.6355483777      -13.3082641285  MEMB      140             0.0000000000
     17398       140  DOPC      C21            25.4327682069       -8.6876078260      -13.0277476672  MEMB      140             0.0000000000
     17399       140  DOPC      O22            26.6517553466       -8.7307925863      -12.9930344258  MEMB      140             0.0000000000
     17400       140  DOPC      C22            24.5156332844       -9.9083299223      -12.8423230398  MEMB      140             0.0000000000
     17401       140  DOPC      H2R            24.1810205179      -10.0769550779      -13.8882298316  MEMB      140             0.0000000000
     17402       140  DOPC      H2S            23.6385768853       -9.8020345505      -12.1686808282  MEMB      140             0.0000000000
     17403       140  DOPC      C3             24.5052665066       -5.3113234566      -13.8755417236  MEMB      140             0.0000000000
     17404       140  DOPC      HX             24.1375920594       -5.3765044371      -14.9219105782  MEMB      140             0.0000000000
     17405       140  DOPC      HY             24.8596345290       -4.3057740233      -13.5631078266  MEMB      140             0.0000000000
     17406       140  DOPC      O31            23.3941669191       -5.4548260034      -12.9009394606  MEMB      140             0.0000000000
     17407       140  DOPC      C31            22.2460551777       -5.1028744536      -13.2612516481  MEMB      140             0.0000000000
     17408       140  DOPC      O32            21.9235651784       -4.5502193318      -14.3287018907  MEMB      140             0.0000000000
     17409       140  DOPC      C32            21.2251419263       -5.4366647983      -12.1783682844  MEMB      140             0.0000000000
     17410       140  DOPC      H2X            21.4052788534       -4.7881278782      -11.2944727883  MEMB      140             0.0000000000
     17411       140  DOPC      H2Y            20.1990241427       -5.2347617777      -12.5533859391  MEMB      140             0.0000000000
     17412       140  DOPC      C23            25.3443727800      -11.1937416306      -12.4699820438  MEMB      140             0.0000000000
     17413       140  DOPC      H3R            26.3482912028      -11.2685255147      -12.9399570759  MEMB      140             0.0000000000
     17414       140  DOPC      H3S            24.8239114927      -12.0805728228      -12.8906619185  MEMB      140             0.0000000000
     17415       140  DOPC      C24            25.5135525484      -11.2240270505      -10.9076628817  MEMB      140             0.0000000000
     17416       140  DOPC      H4R            26.0549103963      -12.1462932157      -10.6065347899  MEMB      140             0.0000000000
     17417       140  DOPC      H4S            24.4907572388      -11.1898151661      -10.4751810147  MEMB      140             0.0000000000
     17418       140  DOPC      C25            26.2730713874      -10.0770155191      -10.2722037042  MEMB      140             0.0000000000
     17419       140  DOPC      H5R            25.8433278783       -9.0998845710      -10.5801918470  MEMB      140             0.0000000000
     17420       140  DOPC      H5S            27.3332538582      -10.0871828827      -10.6042138615  MEMB      140             0.0000000000
     17421       140  DOPC      C26            26.3408152431      -10.0423170774       -8.7275782614  MEMB      140             0.0000000000
     17422       140  DOPC      H6R            27.0088594709      -10.8443267601       -8.3470282173  MEMB      140             0.0000000000
     17423       140  DOPC      H6S            25.3494380775      -10.0297095521       -8.2262476721  MEMB      140             0.0000000000
     17424       140  DOPC      C27            26.9917420644       -8.7371617282       -8.1082533501  MEMB      140             0.0000000000
     17425       140  DOPC      H7R            27.8916716124       -8.5585245643       -8.7347817247  MEMB      140             0.0000000000
     17426       140  DOPC      H7S            27.3910904013       -8.7335093877       -7.0715143404  MEMB      140             0.0000000000
     17427       140  DOPC      C28            25.9640714850       -7.5474166677       -8.1420339952  MEMB      140             0.0000000000
     17428       140  DOPC      H8R            25.1457840184       -7.6906038603       -7.4043183329  MEMB      140             0.0000000000
     17429       140  DOPC      H8S            25.4909168370       -7.5791720008       -9.1467417768  MEMB      140             0.0000000000
     17430       140  DOPC      C29            26.7036244694       -6.2360874737       -7.7356812427  MEMB      140             0.0000000000
     17431       140  DOPC      H9R            27.5754029186       -6.3392797164       -7.0728435181  MEMB      140             0.0000000000
     17432       140  DOPC      C210           26.4807549490       -4.9662938909       -8.2120377384  MEMB      140             0.0000000000
     17433       140  DOPC      H10R           26.9850185920       -4.2024315399       -7.6019284230  MEMB      140             0.0000000000
     17434       140  DOPC      C211           25.4010429690       -4.5093338409       -9.2054196892  MEMB      140             0.0000000000
     17435       140  DOPC      H11R           25.0728587911       -5.4245291600       -9.7430373686  MEMB      140             0.0000000000
     17436       140  DOPC      H11S           25.7165042426       -3.7754983112       -9.9776179381  MEMB      140             0.0000000000
     17437       140  DOPC      C212           24.1839482266       -3.7922866682       -8.5250824196  MEMB      140             0.0000000000
     17438       140  DOPC      H12R           23.5089916379       -3.4841930767       -9.3520239987  MEMB      140             0.0000000000
     17439       140  DOPC      H12S           24.5638013550       -2.9850568767       -7.8629552348  MEMB      140             0.0000000000
     17440       140  DOPC      C213           23.4726433365       -4.7503534877       -7.5638362556  MEMB      140             0.0000000000
     17441       140  DOPC      H13R           24.2486910680       -5.1960879758       -6.9055112690  MEMB      140             0.0000000000
     17442       140  DOPC      H13S           22.9644279584       -5.5357101636       -8.1632140087  MEMB      140             0.0000000000
     17443       140  DOPC      C214           22.2929756192       -4.1059733442       -6.6862975354  MEMB      140             0.0000000000
     17444       140  DOPC      H14R           21.4206796323       -3.9266301098       -7.3505684577  MEMB      140             0.0000000000
     17445       140  DOPC      H14S           22.8617183383       -3.2526102037       -6.2589515702  MEMB      140             0.0000000000
     17446       140  DOPC      C215           21.8000629279       -5.0172033502       -5.5046222007  MEMB      140             0.0000000000
     17447       140  DOPC      H15R           22.6832622915       -5.2649468599       -4.8778018154  MEMB      140             0.0000000000
     17448       140  DOPC      H15S           21.2439024349       -5.8605375574       -5.9670002187  MEMB      140             0.0000000000
     17449       140  DOPC      C216           20.7969389810       -4.4072052274       -4.5074697585  MEMB      140             0.0000000000
     17450       140  DOPC      H16R           19.8108769061       -4.1239365994       -4.9338044489  MEMB      140             0.0000000000
     17451       140  DOPC      H16S           21.2857696284       -3.5140598041       -4.0628840541  MEMB      140             0.0000000000
     17452       140  DOPC      C217           20.5885417869       -5.3089990243       -3.2686661558  MEMB      140             0.0000000000
     17453       140  DOPC      H17R           20.2422122428       -6.2964939246       -3.6418022371  MEMB      140             0.0000000000
     17454       140  DOPC      H17S           19.7481840970       -4.8939010645       -2.6721652661  MEMB      140             0.0000000000
     17455       140  DOPC      C218           21.8148584685       -5.3878410923       -2.2955478938  MEMB      140             0.0000000000
     17456       140  DOPC      H18R           22.5269094933       -4.5391738581       -2.3796219385  MEMB      140             0.0000000000
     17457       140  DOPC      H18S           22.4824845603       -6.2613970544       -2.4552251440  MEMB      140             0.0000000000
     17458       140  DOPC      H18T           21.4337718438       -5.5151932919       -1.2597523189  MEMB      140             0.0000000000
     17459       140  DOPC      C33            21.3526677103       -6.9530238663      -11.8369460910  MEMB      140             0.0000000000
     17460       140  DOPC      H3X            22.3867063537       -7.2229359204      -11.5332477616  MEMB      140             0.0000000000
     17461       140  DOPC      H3Y            21.1113532957       -7.4583019094      -12.7965200858  MEMB      140             0.0000000000
     17462       140  DOPC      C34            20.3635074863       -7.2726189081      -10.7688977734  MEMB      140             0.0000000000
     17463       140  DOPC      H4X            19.3963561210       -7.4195162663      -11.2955475751  MEMB      140             0.0000000000
     17464       140  DOPC      H4Y            20.2775170886       -6.3349972366      -10.1791584630  MEMB      140             0.0000000000
     17465       140  DOPC      C35            20.7032357025       -8.5728495722      -10.0392594762  MEMB      140             0.0000000000
     17466       140  DOPC      H5X            21.4484385837       -9.2521397919      -10.5056908709  MEMB      140             0.0000000000
     17467       140  DOPC      H5Y            19.7392771191       -9.1003531623       -9.8754132993  MEMB      140             0.0000000000
     17468       140  DOPC      C36            21.4137587962       -8.3254999174       -8.7303813765  MEMB      140             0.0000000000
     17469       140  DOPC      H6X            22.4611597589       -8.2057823127       -9.0810087456  MEMB      140             0.0000000000
     17470       140  DOPC      H6Y            20.9764816227       -7.4531302865       -8.1992682185  MEMB      140             0.0000000000
     17471       140  DOPC      C37            21.3644910060       -9.5551260925       -7.8080380908  MEMB      140             0.0000000000
     17472       140  DOPC      H7X            20.3644139984       -9.8843305227       -7.4533667857  MEMB      140             0.0000000000
     17473       140  DOPC      H7Y            21.7872187130      -10.3597318073       -8.4469679000  MEMB      140             0.0000000000
     17474       140  DOPC      C38            22.1321966385       -9.4977889887       -6.5042438690  MEMB      140             0.0000000000
     17475       140  DOPC      H8X            21.8018457815       -8.5922249756       -5.9518458610  MEMB      140             0.0000000000
     17476       140  DOPC      H8Y            23.1969839320       -9.3604835796       -6.7900684711  MEMB      140             0.0000000000
     17477       140  DOPC      C39            22.0491035423      -10.7658728077       -5.6491748255  MEMB      140             0.0000000000
     17478       140  DOPC      H9X            21.1121899391      -10.9197659753       -5.0937372283  MEMB      140             0.0000000000
     17479       140  DOPC      C310           23.0425776059      -11.6804641399       -5.3970477327  MEMB      140             0.0000000000
     17480       140  DOPC      H10X           22.7268704337      -12.5812485939       -4.8503152729  MEMB      140             0.0000000000
     17481       140  DOPC      C311           24.4824453145      -11.7695655187       -5.9174096421  MEMB      140             0.0000000000
     17482       140  DOPC      H11X           24.8377862139      -10.7959807945       -6.3176433835  MEMB      140             0.0000000000
     17483       140  DOPC      H11Y           24.4074404713      -12.5574108768       -6.6971496179  MEMB      140             0.0000000000
     17484       140  DOPC      C312           25.6098488654      -12.1145855602       -4.8980879877  MEMB      140             0.0000000000
     17485       140  DOPC      H12X           26.5876070097      -12.2336675570       -5.4120233526  MEMB      140             0.0000000000
     17486       140  DOPC      H12Y           25.2667349301      -13.0700469629       -4.4467716129  MEMB      140             0.0000000000
     17487       140  DOPC      C313           25.7119468033      -11.0689449298       -3.7770222252  MEMB      140             0.0000000000
     17488       140  DOPC      H13X           24.7124859677      -10.9270863587       -3.3130441787  MEMB      140             0.0000000000
     17489       140  DOPC      H13Y           26.4470396526      -11.3835426685       -3.0056680350  MEMB      140             0.0000000000
     17490       140  DOPC      C314           26.1881603099       -9.7735308367       -4.3609359825  MEMB      140             0.0000000000
     17491       140  DOPC      H14X           27.0754833116      -10.0094639896       -4.9864874185  MEMB      140             0.0000000000
     17492       140  DOPC      H14Y           25.3942250160       -9.4185637441       -5.0523012534  MEMB      140             0.0000000000
     17493       140  DOPC      C315           26.7173442867       -8.7850554856       -3.2934427406  MEMB      140             0.0000000000
     17494       140  DOPC      H15X           27.2133822610       -7.9463775476       -3.8271902083  MEMB      140             0.0000000000
     17495       140  DOPC      H15Y           27.4912586959       -9.3464265465       -2.7275443023  MEMB      140             0.0000000000
     17496       140  DOPC      C316           25.4994336477       -8.4180185517       -2.3869024675  MEMB      140             0.0000000000
     17497       140  DOPC      H16X           24.8276441875       -7.8634438672       -3.0764437591  MEMB      140             0.0000000000
     17498       140  DOPC      H16Y           24.8880854592       -9.3009005422       -2.1021335777  MEMB      140             0.0000000000
     17499       140  DOPC      C317           25.9110057667       -7.5750708437       -1.1124835132  MEMB      140             0.0000000000
     17500       140  DOPC      H17X           24.9528666447       -7.1930085247       -0.6997867680  MEMB      140             0.0000000000
     17501       140  DOPC      H17Y           26.4657493032       -8.1562113532       -0.3451135011  MEMB      140             0.0000000000
     17502       140  DOPC      C318           26.7185909079       -6.3374380235       -1.5460668068  MEMB      140             0.0000000000
     17503       140  DOPC      H18X           27.7885560441       -6.6028671853       -1.4080730057  MEMB      140             0.0000000000
     17504       140  DOPC      H18Y           26.5656846468       -5.9575448234       -2.5788398718  MEMB      140             0.0000000000
     17505       140  DOPC      H18Z           26.4730676937       -5.5207233727       -0.8340151918  MEMB      140             0.0000000000
     17506       141  23SM      N              27.2394301821        5.6716287759      -26.5300584273  MEMB      141             0.0000000000
     17507       141  23SM      C15            27.8927012393        4.3363772918      -26.7236379639  MEMB      141             0.0000000000
     17508       141  23SM      H15A           28.9440754690        4.5828908031      -26.7080323941  MEMB      141             0.0000000000
     17509       141  23SM      H15B           27.6925522590        4.0367612421      -27.7417591217  MEMB      141             0.0000000000
     17510       141  23SM      H15C           27.5786475440        3.6562286879      -25.9457125109  MEMB      141             0.0000000000
     17511       141  23SM      C14            27.6987563953        6.2024023601      -25.1955131681  MEMB      141             0.0000000000
     17512       141  23SM      H14A           27.1618734982        7.0834323302      -24.8762281863  MEMB      141             0.0000000000
     17513       141  23SM      H14B           28.7209471144        6.5112380914      -25.3572124752  MEMB      141             0.0000000000
     17514       141  23SM      H14C           27.5723634564        5.4919021607      -24.3920118756  MEMB      141             0.0000000000
     17515       141  23SM      C13            27.5394027808        6.6263368703      -27.6745079756  MEMB      141             0.0000000000
     17516       141  23SM      H13A           27.2104257026        7.5780150067      -27.2840176337  MEMB      141             0.0000000000
     17517       141  23SM      H13B           26.9475801054        6.3427364431      -28.5322472535  MEMB      141             0.0000000000
     17518       141  23SM      H13C           28.6126471751        6.6181310121      -27.7948371986  MEMB      141             0.0000000000
     17519       141  23SM      C12            25.7199716639        5.3591915581      -26.5513392048  MEMB      141             0.0000000000
     17520       141  23SM      H12A           25.5537338438        4.8291743520      -25.6251390896  MEMB      141             0.0000000000
     17521       141  23SM      H12B           25.4184332980        4.6462628119      -27.3044708925  MEMB      141             0.0000000000
     17522       141  23SM      C11            24.7195549495        6.5706791395      -26.4068877744  MEMB      141             0.0000000000
     17523       141  23SM      H11A           23.6511333986        6.3299105493      -26.2202676975  MEMB      141             0.0000000000
     17524       141  23SM      H11B           24.8749323836        7.0219646837      -27.4101425801  MEMB      141             0.0000000000
     17525       141  23SM      P              24.9920486562        8.9031562526      -25.4663661693  MEMB      141             0.0000000000
     17526       141  23SM      O13            26.0217924194        9.5069733205      -26.3915253751  MEMB      141             0.0000000000
     17527       141  23SM      O14            23.5690732706        9.2949287045      -25.7600839989  MEMB      141             0.0000000000
     17528       141  23SM      O11            25.3789102403        9.3638708463      -23.9478060947  MEMB      141             0.0000000000
     17529       141  23SM      O12            25.1490603022        7.3954694918      -25.3522738518  MEMB      141             0.0000000000
     17530       141  23SM      C1S            26.0007408444        8.5550514417      -22.9748039640  MEMB      141             0.0000000000
     17531       141  23SM      H1S            27.0806702817        8.6861792493      -23.2003674253  MEMB      141             0.0000000000
     17532       141  23SM      H1T            25.6993921633        7.4890684633      -23.0595993971  MEMB      141             0.0000000000
     17533       141  23SM      NF             27.0400923478        9.0789155011      -20.8255796195  MEMB      141             0.0000000000
     17534       141  23SM      HNF            27.1201521406        8.4500394182      -20.0560898264  MEMB      141             0.0000000000
     17535       141  23SM      C2S            25.7914001800        8.9698680842      -21.5287027256  MEMB      141             0.0000000000
     17536       141  23SM      H2S            25.3100626651        9.9696200549      -21.5846583477  MEMB      141             0.0000000000
     17537       141  23SM      C3S            24.8079892915        7.9811421343      -20.9057618863  MEMB      141             0.0000000000
     17538       141  23SM      H3S            25.1938249417        6.9535541509      -21.0775602068  MEMB      141             0.0000000000
     17539       141  23SM      O3             23.5242778452        8.1464789084      -21.5418196802  MEMB      141             0.0000000000
     17540       141  23SM      HO3            23.7044861667        8.7501864641      -22.2661554800  MEMB      141             0.0000000000
     17541       141  23SM      C4S            24.7545309261        8.2581728358      -19.4485292451  MEMB      141             0.0000000000
     17542       141  23SM      H4S            24.4899147776        9.2989299313      -19.2101956378  MEMB      141             0.0000000000
     17543       141  23SM      C5S            25.1831445311        7.3787256894      -18.4550350654  MEMB      141             0.0000000000
     17544       141  23SM      H5S            25.7246417661        6.4772057464      -18.7775915109  MEMB      141             0.0000000000
     17545       141  23SM      C6S            25.1222635833        7.6074238111      -16.9674798734  MEMB      141             0.0000000000
     17546       141  23SM      H6S            26.1324510052        7.5117855306      -16.5150469546  MEMB      141             0.0000000000
     17547       141  23SM      H6T            24.5761838508        6.7248124058      -16.5711028132  MEMB      141             0.0000000000
     17548       141  23SM      C7S            24.4000650806        8.9340859870      -16.6104028385  MEMB      141             0.0000000000
     17549       141  23SM      H7S            23.3715178456        8.8501599934      -17.0219462949  MEMB      141             0.0000000000
     17550       141  23SM      H7T            24.7816891842        9.8051012212      -17.1848729870  MEMB      141             0.0000000000
     17551       141  23SM      C8S            24.3548245813        9.2538592967      -15.1502913352  MEMB      141             0.0000000000
     17552       141  23SM      H8S            23.7681324304       10.1508876774      -14.8579668191  MEMB      141             0.0000000000
     17553       141  23SM      H8T            25.3833023747        9.4000026198      -14.7563421899  MEMB      141             0.0000000000
     17554       141  23SM      C9S            23.5838926690        8.1437131813      -14.3934870782  MEMB      141             0.0000000000
     17555       141  23SM      H9S            24.2049793051        7.2259287251      -14.4725067330  MEMB      141             0.0000000000
     17556       141  23SM      H9T            22.6678963526        7.9329880754      -14.9858267658  MEMB      141             0.0000000000
     17557       141  23SM      C10S           23.1514651850        8.2263384856      -12.8368769431  MEMB      141             0.0000000000
     17558       141  23SM      H10S           22.7758119649        7.2015629730      -12.6294145414  MEMB      141             0.0000000000
     17559       141  23SM      H10T           22.3102932188        8.9519787692      -12.8509058204  MEMB      141             0.0000000000
     17560       141  23SM      C11S           24.2045065707        8.6054880280      -11.7234997041  MEMB      141             0.0000000000
     17561       141  23SM      H11S           24.7492071473        9.5380179395      -11.9842876951  MEMB      141             0.0000000000
     17562       141  23SM      H11T           24.9989229715        7.8292648929      -11.6970179830  MEMB      141             0.0000000000
     17563       141  23SM      C12S           23.6319838122        8.7889943630      -10.3126017452  MEMB      141             0.0000000000
     17564       141  23SM      H12S           22.6685448191        9.3364576892      -10.3925406877  MEMB      141             0.0000000000
     17565       141  23SM      H12T           24.3716116260        9.3182476477       -9.6745083905  MEMB      141             0.0000000000
     17566       141  23SM      C13S           23.1975650905        7.4706154916       -9.6722735919  MEMB      141             0.0000000000
     17567       141  23SM      H13S           23.9882271144        6.7118188278       -9.8550365295  MEMB      141             0.0000000000
     17568       141  23SM      H13T           22.3154340365        6.9955666686      -10.1523719078  MEMB      141             0.0000000000
     17569       141  23SM      C14S           22.7421207587        7.6327912819       -8.1921236310  MEMB      141             0.0000000000
     17570       141  23SM      H14S           22.3813815970        6.5894801478       -8.0668640711  MEMB      141             0.0000000000
     17571       141  23SM      H14T           21.9082080453        8.3668949121       -8.1937400396  MEMB      141             0.0000000000
     17572       141  23SM      C15S           23.8352310424        7.8740999917       -7.1892569322  MEMB      141             0.0000000000
     17573       141  23SM      H15S           24.0526354718        8.9603348622       -7.1046955037  MEMB      141             0.0000000000
     17574       141  23SM      H15T           24.6879787412        7.2018917762       -7.4243703040  MEMB      141             0.0000000000
     17575       141  23SM      C16S           23.4509614970        7.3980833677       -5.7818981609  MEMB      141             0.0000000000
     17576       141  23SM      H16S           23.1933994244        6.3173683674       -5.7757501071  MEMB      141             0.0000000000
     17577       141  23SM      H16T           22.5787003394        7.9987586375       -5.4462337073  MEMB      141             0.0000000000
     17578       141  23SM      C17S           24.5550280191        7.6070173723       -4.7318149939  MEMB      141             0.0000000000
     17579       141  23SM      H17S           24.6620245975        8.7087147868       -4.6362353408  MEMB      141             0.0000000000
     17580       141  23SM      H17T           25.4608753596        7.1229837902       -5.1554574143  MEMB      141             0.0000000000
     17581       141  23SM      C18S           24.2180071988        6.9681105785       -3.3771103499  MEMB      141             0.0000000000
     17582       141  23SM      H18S           24.0378844833        5.8759374772       -3.4721594493  MEMB      141             0.0000000000
     17583       141  23SM      H18T           23.3012820400        7.4541430198       -2.9799840560  MEMB      141             0.0000000000
     17584       141  23SM      H18U           25.1283331617        7.1155784735       -2.7575295631  MEMB      141             0.0000000000
     17585       141  23SM      C1F            28.1106630807        9.8682411908      -21.1235476773  MEMB      141             0.0000000000
     17586       141  23SM      OF             28.0418756097       10.8681828181      -21.9035682783  MEMB      141             0.0000000000
     17587       141  23SM      C2F            29.4462045556        9.3786891022      -20.5655783271  MEMB      141             0.0000000000
     17588       141  23SM      H2F            30.2040371455        9.4025429956      -21.3776387486  MEMB      141             0.0000000000
     17589       141  23SM      H2G            29.2186096287        8.3597130952      -20.1858290516  MEMB      141             0.0000000000
     17590       141  23SM      C3F            30.0404055613       10.3389015079      -19.5400317303  MEMB      141             0.0000000000
     17591       141  23SM      H3F            29.9390051896       11.3565608101      -19.9740919189  MEMB      141             0.0000000000
     17592       141  23SM      H3G            31.1036388463       10.0903910840      -19.3348524066  MEMB      141             0.0000000000
     17593       141  23SM      C4F            29.2444364806       10.2857965035      -18.1855954369  MEMB      141             0.0000000000
     17594       141  23SM      H4F            29.4778902083        9.3311808557      -17.6673968190  MEMB      141             0.0000000000
     17595       141  23SM      H4G            28.1907422350       10.1438260455      -18.5079206553  MEMB      141             0.0000000000
     17596       141  23SM      C5F            29.4843823868       11.4887130977      -17.2793330896  MEMB      141             0.0000000000
     17597       141  23SM      H5F            28.9406978320       12.3972785838      -17.6158401354  MEMB      141             0.0000000000
     17598       141  23SM      H5G            30.5590223311       11.7450892415      -17.3965535713  MEMB      141             0.0000000000
     17599       141  23SM      C6F            28.8540809593       11.1467211905      -15.8811808318  MEMB      141             0.0000000000
     17600       141  23SM      H6F            27.9567699388       10.4974551168      -15.9684005803  MEMB      141             0.0000000000
     17601       141  23SM      H6G            28.7015306924       12.1309673411      -15.3889321951  MEMB      141             0.0000000000
     17602       141  23SM      C7F            29.8564073629       10.3620949616      -15.0503614498  MEMB      141             0.0000000000
     17603       141  23SM      H7F            30.8179080799       10.9176154670      -15.0152263004  MEMB      141             0.0000000000
     17604       141  23SM      H7G            30.1557187259        9.3434781221      -15.3777047236  MEMB      141             0.0000000000
     17605       141  23SM      C8F            29.4384877928       10.2143788147      -13.5803702588  MEMB      141             0.0000000000
     17606       141  23SM      H8F            29.5703637203       11.1916681599      -13.0686717246  MEMB      141             0.0000000000
     17607       141  23SM      H8G            30.2320003733        9.5907813610      -13.1158436638  MEMB      141             0.0000000000
     17608       141  23SM      C9F            28.1101202678        9.5205572226      -13.3172885114  MEMB      141             0.0000000000
     17609       141  23SM      H9F            27.3488710469       10.0716755971      -13.9098164200  MEMB      141             0.0000000000
     17610       141  23SM      H9G            27.7945301207        9.6401480369      -12.2587892764  MEMB      141             0.0000000000
     17611       141  23SM      C10F           27.8552611760        8.0999273810      -13.7492636944  MEMB      141             0.0000000000
     17612       141  23SM      H10F           28.0358931996        8.0785356090      -14.8452723931  MEMB      141             0.0000000000
     17613       141  23SM      H10G           26.8197764478        7.7887633946      -13.4937851911  MEMB      141             0.0000000000
     17614       141  23SM      C11F           28.8950246526        7.0355739250      -13.1756136954  MEMB      141             0.0000000000
     17615       141  23SM      H11F           29.9138845084        7.2998575203      -13.5311412960  MEMB      141             0.0000000000
     17616       141  23SM      H11G           28.6140570369        6.0282691813      -13.5507336128  MEMB      141             0.0000000000
     17617       141  23SM      C12F           29.0624127176        6.9927422841      -11.6607329430  MEMB      141             0.0000000000
     17618       141  23SM      H12F           29.2956879128        7.9834864010      -11.2153896587  MEMB      141             0.0000000000
     17619       141  23SM      H12G           29.8562457852        6.2186689514      -11.5903011821  MEMB      141             0.0000000000
     17620       141  23SM      C13F           27.7771533436        6.4400222933      -10.9235439089  MEMB      141             0.0000000000
     17621       141  23SM      H13F           27.2981014858        5.5284621554      -11.3405436346  MEMB      141             0.0000000000
     17622       141  23SM      H13G           27.0236973591        7.2564381257      -10.9140475180  MEMB      141             0.0000000000
     17623       141  23SM      C14F           28.0552188864        6.0872243658       -9.4838392620  MEMB      141             0.0000000000
     17624       141  23SM      H14F           28.9156237150        5.3843583242       -9.4819429151  MEMB      141             0.0000000000
     17625       141  23SM      H14G           27.0917851570        5.6264150887       -9.1776179725  MEMB      141             0.0000000000
     17626       141  23SM      C15F           28.3002707673        7.4034105597       -8.7039475562  MEMB      141             0.0000000000
     17627       141  23SM      H15F           27.5682742910        8.1963434218       -8.9680670134  MEMB      141             0.0000000000
     17628       141  23SM      H15G           29.3075955242        7.8399032925       -8.8745113284  MEMB      141             0.0000000000
     17629       141  23SM      C16F           28.3036189892        7.2633615090       -7.1496207187  MEMB      141             0.0000000000
     17630       141  23SM      H16F           27.3050940063        7.2266770371       -6.6639014495  MEMB      141             0.0000000000
     17631       141  23SM      H16G           28.8331711650        8.1458918313       -6.7312469838  MEMB      141             0.0000000000
     17632       141  23SM      C17F           29.2429912802        6.1049456624       -6.7493380939  MEMB      141             0.0000000000
     17633       141  23SM      H17F           30.1792228765        6.1911349785       -7.3412517023  MEMB      141             0.0000000000
     17634       141  23SM      H17G           28.8044140310        5.1575262299       -7.1292954083  MEMB      141             0.0000000000
     17635       141  23SM      C18F           29.5392517078        5.9982883225       -5.2621298854  MEMB      141             0.0000000000
     17636       141  23SM      H18F           29.7237638345        7.0444308065       -4.9367653950  MEMB      141             0.0000000000
     17637       141  23SM      H18G           30.5043024381        5.4692008769       -5.1102596839  MEMB      141             0.0000000000
     17638       141  23SM      C19F           28.4194218217        5.3920171537       -4.4809413963  MEMB      141             0.0000000000
     17639       141  23SM      H19F           28.1777932265        4.3891736367       -4.8935451598  MEMB      141             0.0000000000
     17640       141  23SM      H19G           27.4810708563        5.9080746026       -4.7767495729  MEMB      141             0.0000000000
     17641       141  23SM      C20F           28.5491302159        5.5187074684       -2.9790234746  MEMB      141             0.0000000000
     17642       141  23SM      H20F           28.4144096574        6.5647977260       -2.6299288310  MEMB      141             0.0000000000
     17643       141  23SM      H20G           29.5429916181        5.2871857676       -2.5397532618  MEMB      141             0.0000000000
     17644       141  23SM      C21F           27.5477882246        4.4978023855       -2.4157053408  MEMB      141             0.0000000000
     17645       141  23SM      H21F           27.8713339314        3.4482131958       -2.5830423486  MEMB      141             0.0000000000
     17646       141  23SM      H21G           26.5778674663        4.5735701615       -2.9522081029  MEMB      141             0.0000000000
     17647       141  23SM      C22F           27.2743859003        4.5801449737       -0.9397853846  MEMB      141             0.0000000000
     17648       141  23SM      H22F           28.2469881307        4.7756521221       -0.4396433458  MEMB      141             0.0000000000
     17649       141  23SM      H22G           26.9907986505        3.5925297021       -0.5172754336  MEMB      141             0.0000000000
     17650       141  23SM      C23F           26.2129544136        5.5884808032       -0.4305728347  MEMB      141             0.0000000000
     17651       141  23SM      H23F           26.5602549064        6.5209249832       -0.9247912663  MEMB      141             0.0000000000
     17652       141  23SM      H23G           26.1715349175        5.6521138322        0.6778294358  MEMB      141             0.0000000000
     17653       141  23SM      H23H           25.1785654386        5.3652793543       -0.7690121827  MEMB      141             0.0000000000
     17654       142  CHL1      C3            -17.7574587050      -20.9787870628      -17.2735200000  MEMB      142             0.0000000000
     17655       142  CHL1      H3            -18.8182627819      -20.9013013627      -16.9525600000  MEMB      142             0.0000000000
     17656       142  CHL1      O3            -17.8064412950      -20.9135565372      -18.7264800000  MEMB      142             0.0000000000
     17657       142  CHL1      H3'           -18.4434552168      -21.5844196831      -18.9829000000  MEMB      142             0.0000000000
     17658       142  CHL1      C4            -16.9570247854      -19.7866573280      -16.6943800000  MEMB      142             0.0000000000
     17659       142  CHL1      H4A           -15.9152713917      -19.8558261735      -17.0742500000  MEMB      142             0.0000000000
     17660       142  CHL1      H4B           -17.4804786055      -18.8517423852      -16.9880500000  MEMB      142             0.0000000000
     17661       142  CHL1      C5            -17.0534702844      -19.8549501235      -15.1699500000  MEMB      142             0.0000000000
     17662       142  CHL1      C6            -17.6300947259      -18.9143338983      -14.4138200000  MEMB      142             0.0000000000
     17663       142  CHL1      H6            -17.8999861022      -17.9944411026      -14.9532100000  MEMB      142             0.0000000000
     17664       142  CHL1      C7            -17.6317696054      -18.8180940044      -12.9432200000  MEMB      142             0.0000000000
     17665       142  CHL1      H7A           -17.4305857041      -17.7743270723      -12.6201300000  MEMB      142             0.0000000000
     17666       142  CHL1      H7B           -18.5693110778      -19.3527684948      -12.6796600000  MEMB      142             0.0000000000
     17667       142  CHL1      C8            -16.6542446364      -19.8024365030      -12.3419000000  MEMB      142             0.0000000000
     17668       142  CHL1      H8            -15.6721108188      -19.2925615037      -12.4406800000  MEMB      142             0.0000000000
     17669       142  CHL1      C14           -16.9645597054      -19.9331661874      -10.8630400000  MEMB      142             0.0000000000
     17670       142  CHL1      H14           -17.9410324604      -20.4627153543      -10.8436000000  MEMB      142             0.0000000000
     17671       142  CHL1      C15           -17.0455913454      -18.6402051261       -9.9897600000  MEMB      142             0.0000000000
     17672       142  CHL1      H15A          -16.3216727256      -17.9100133643      -10.4105700000  MEMB      142             0.0000000000
     17673       142  CHL1      H15B          -18.0740638133      -18.2384259061       -9.8666700000  MEMB      142             0.0000000000
     17674       142  CHL1      C16           -16.6770092834      -19.1204201613       -8.5797600000  MEMB      142             0.0000000000
     17675       142  CHL1      H16A          -15.8417210302      -18.5289968950       -8.1475200000  MEMB      142             0.0000000000
     17676       142  CHL1      H16B          -17.6466585116      -18.9743683176       -8.0574800000  MEMB      142             0.0000000000
     17677       142  CHL1      C17           -16.4354841600      -20.6390176429       -8.6782900000  MEMB      142             0.0000000000
     17678       142  CHL1      H17           -17.4541214548      -21.0792478847       -8.6245000000  MEMB      142             0.0000000000
     17679       142  CHL1      C13           -16.0212383110      -20.8781096761      -10.1013500000  MEMB      142             0.0000000000
     17680       142  CHL1      C18           -14.5362721450      -20.4190075651      -10.1537000000  MEMB      142             0.0000000000
     17681       142  CHL1      H18A          -14.1403045025      -20.5958862607      -11.1765600000  MEMB      142             0.0000000000
     17682       142  CHL1      H18B          -14.3261483700      -19.3737335968       -9.8413000000  MEMB      142             0.0000000000
     17683       142  CHL1      H18C          -13.9872222111      -21.1754432110       -9.5531400000  MEMB      142             0.0000000000
     17684       142  CHL1      C12           -16.3093926090      -22.2256344839      -10.6818400000  MEMB      142             0.0000000000
     17685       142  CHL1      H12A          -15.7117901006      -22.9780112255      -10.1240400000  MEMB      142             0.0000000000
     17686       142  CHL1      H12B          -17.3359448579      -22.5382650173      -10.3941300000  MEMB      142             0.0000000000
     17687       142  CHL1      C11           -16.0702560706      -22.3057743926      -12.1858000000  MEMB      142             0.0000000000
     17688       142  CHL1      H11A          -14.9716068880      -22.2101979443      -12.3205500000  MEMB      142             0.0000000000
     17689       142  CHL1      H11B          -16.3217271708      -23.3556923996      -12.4480100000  MEMB      142             0.0000000000
     17690       142  CHL1      C9            -16.8207965729      -21.2113746650      -13.0006300000  MEMB      142             0.0000000000
     17691       142  CHL1      H9            -17.8962388769      -21.4588944112      -12.8722200000  MEMB      142             0.0000000000
     17692       142  CHL1      C10           -16.5111222569      -21.1439203307      -14.5349400000  MEMB      142             0.0000000000
     17693       142  CHL1      C19           -14.9747067257      -21.1790282379      -14.8755600000  MEMB      142             0.0000000000
     17694       142  CHL1      H19A          -14.4631059920      -20.3717702594      -14.3090500000  MEMB      142             0.0000000000
     17695       142  CHL1      H19B          -14.5215720910      -22.1268527997      -14.5141500000  MEMB      142             0.0000000000
     17696       142  CHL1      H19C          -14.7485086831      -21.1631585667      -15.9631700000  MEMB      142             0.0000000000
     17697       142  CHL1      C1            -17.2383987539      -22.3625293334      -15.2002600000  MEMB      142             0.0000000000
     17698       142  CHL1      H1A           -16.7748458010      -23.3056548374      -14.8397500000  MEMB      142             0.0000000000
     17699       142  CHL1      H1B           -18.3224130672      -22.3012736465      -14.9647200000  MEMB      142             0.0000000000
     17700       142  CHL1      C2            -17.1758451650      -22.2411790923      -16.7140800000  MEMB      142             0.0000000000
     17701       142  CHL1      H2A           -17.8048103452      -23.1232744009      -16.9603200000  MEMB      142             0.0000000000
     17702       142  CHL1      H2B           -16.1014683641      -22.3511485077      -16.9747200000  MEMB      142             0.0000000000
     17703       142  CHL1      C20           -15.6333777362      -21.1167896302       -7.4514500000  MEMB      142             0.0000000000
     17704       142  CHL1      H20           -14.6012353553      -20.7063544005       -7.4279200000  MEMB      142             0.0000000000
     17705       142  CHL1      C21           -15.4842185468      -22.6317414242       -7.5470700000  MEMB      142             0.0000000000
     17706       142  CHL1      H21A          -14.9744761395      -22.9553454704       -6.6144600000  MEMB      142             0.0000000000
     17707       142  CHL1      H21B          -14.7302386974      -22.8668535618       -8.3284500000  MEMB      142             0.0000000000
     17708       142  CHL1      H21C          -16.4463777833      -23.1417571841       -7.7672300000  MEMB      142             0.0000000000
     17709       142  CHL1      C22           -16.2405360061      -20.6873387574       -6.1077100000  MEMB      142             0.0000000000
     17710       142  CHL1      H22A          -17.1337346329      -20.0316248103       -6.1887300000  MEMB      142             0.0000000000
     17711       142  CHL1      H22B          -16.5835467189      -21.6168026148       -5.6049500000  MEMB      142             0.0000000000
     17712       142  CHL1      C23           -15.3017783473      -19.8773413349       -5.1834000000  MEMB      142             0.0000000000
     17713       142  CHL1      H23A          -14.6085197371      -20.6752070061       -4.8411600000  MEMB      142             0.0000000000
     17714       142  CHL1      H23B          -14.8107137823      -19.0699907546       -5.7676700000  MEMB      142             0.0000000000
     17715       142  CHL1      C24           -16.0991221605      -19.3257784476       -3.9595400000  MEMB      142             0.0000000000
     17716       142  CHL1      H24A          -16.7471478194      -18.4645736715       -4.2292000000  MEMB      142             0.0000000000
     17717       142  CHL1      H24B          -16.6786443453      -20.2314100408       -3.6796900000  MEMB      142             0.0000000000
     17718       142  CHL1      C25           -15.1591267175      -18.9869234550       -2.8147400000  MEMB      142             0.0000000000
     17719       142  CHL1      H25           -14.2278278058      -18.5113048063       -3.1899800000  MEMB      142             0.0000000000
     17720       142  CHL1      C26           -15.8651118071      -17.9557203895       -1.9258900000  MEMB      142             0.0000000000
     17721       142  CHL1      H26A          -15.9679046673      -16.9337873350       -2.3494300000  MEMB      142             0.0000000000
     17722       142  CHL1      H26B          -16.8027590666      -18.4086649808       -1.5386200000  MEMB      142             0.0000000000
     17723       142  CHL1      H26C          -15.2008832063      -17.9467356654       -1.0353600000  MEMB      142             0.0000000000
     17724       142  CHL1      C27           -14.7741263600      -20.1498518420       -1.9447000000  MEMB      142             0.0000000000
     17725       142  CHL1      H27A          -14.3173319475      -20.9837217158       -2.5194300000  MEMB      142             0.0000000000
     17726       142  CHL1      H27B          -14.0433463255      -19.8595695838       -1.1598400000  MEMB      142             0.0000000000
     17727       142  CHL1      H27C          -15.7068381458      -20.6463212721       -1.6013500000  MEMB      142             0.0000000000
     17728       143  CHL1      C3             19.0616377143       21.2130678951      -17.5064950000  MEMB      143             0.0000000000
     17729       143  CHL1      H3             19.7692934653       20.4721900596      -17.9361750000  MEMB      143             0.0000000000
     17730       143  CHL1      O3             18.0053138857       21.5290749049      -18.4935050000  MEMB      143             0.0000000000
     17731       143  CHL1      H3'            18.3925583113       22.0428940744      -19.2059850000  MEMB      143             0.0000000000
     17732       143  CHL1      C4             18.2780204601       20.8617069072      -16.2245050000  MEMB      143             0.0000000000
     17733       143  CHL1      H4A            17.5349492540       21.6764053416      -16.0887650000  MEMB      143             0.0000000000
     17734       143  CHL1      H4B            17.6797988305       19.9510900973      -16.4418250000  MEMB      143             0.0000000000
     17735       143  CHL1      C5             19.2179824325       20.8028935772      -14.9913550000  MEMB      143             0.0000000000
     17736       143  CHL1      C6             19.2443815968       19.6723410349      -14.2743250000  MEMB      143             0.0000000000
     17737       143  CHL1      H6             18.5678852853       18.8470520035      -14.5412650000  MEMB      143             0.0000000000
     17738       143  CHL1      C7             20.0958405312       19.4294807458      -13.1397650000  MEMB      143             0.0000000000
     17739       143  CHL1      H7A            19.4335831580       18.9512104100      -12.3867750000  MEMB      143             0.0000000000
     17740       143  CHL1      H7B            20.9473753311       18.7699481172      -13.4122150000  MEMB      143             0.0000000000
     17741       143  CHL1      C8             20.6399437642       20.7945079534      -12.5551850000  MEMB      143             0.0000000000
     17742       143  CHL1      H8             19.7647918267       21.2932164917      -12.0864350000  MEMB      143             0.0000000000
     17743       143  CHL1      C14            21.7947371431       20.5403223999      -11.5456050000  MEMB      143             0.0000000000
     17744       143  CHL1      H14            22.6579776031       20.2141943970      -12.1642950000  MEMB      143             0.0000000000
     17745       143  CHL1      C15            21.6521710087       19.3922663713      -10.5479850000  MEMB      143             0.0000000000
     17746       143  CHL1      H15A           20.6334527344       19.5171291358      -10.1226050000  MEMB      143             0.0000000000
     17747       143  CHL1      H15B           21.7982336141       18.4222565040      -11.0695750000  MEMB      143             0.0000000000
     17748       143  CHL1      C16            22.7373682699       19.6271336094       -9.5968150000  MEMB      143             0.0000000000
     17749       143  CHL1      H16A           22.1352996195       19.7291028515       -8.6686750000  MEMB      143             0.0000000000
     17750       143  CHL1      H16B           23.4508667548       18.7819622105       -9.4923450000  MEMB      143             0.0000000000
     17751       143  CHL1      C17            23.2540144061       21.0933512668       -9.8464150000  MEMB      143             0.0000000000
     17752       143  CHL1      H17            24.1699338671       20.8387080319      -10.4213650000  MEMB      143             0.0000000000
     17753       143  CHL1      C13            22.2409687046       21.7426766795      -10.7773250000  MEMB      143             0.0000000000
     17754       143  CHL1      C18            21.0622405445       22.3664701215       -9.9619750000  MEMB      143             0.0000000000
     17755       143  CHL1      H18A           20.5339711316       21.5631503194       -9.4052650000  MEMB      143             0.0000000000
     17756       143  CHL1      H18B           21.4855056634       23.0898017855       -9.2326150000  MEMB      143             0.0000000000
     17757       143  CHL1      H18C           20.2765618613       22.9146291881      -10.5246050000  MEMB      143             0.0000000000
     17758       143  CHL1      C12            22.7611893153       22.7259194920      -11.8172250000  MEMB      143             0.0000000000
     17759       143  CHL1      H12A           23.0445883384       23.6605598784      -11.2876450000  MEMB      143             0.0000000000
     17760       143  CHL1      H12B           23.5828513711       22.1637587863      -12.3103350000  MEMB      143             0.0000000000
     17761       143  CHL1      C11            21.7408256570       23.0535926005      -12.9283550000  MEMB      143             0.0000000000
     17762       143  CHL1      H11A           20.9275344711       23.5971563001      -12.4016550000  MEMB      143             0.0000000000
     17763       143  CHL1      H11B           22.1806577666       23.6972094402      -13.7199450000  MEMB      143             0.0000000000
     17764       143  CHL1      C9             21.1599814809       21.7560579526      -13.6342550000  MEMB      143             0.0000000000
     17765       143  CHL1      H9             21.9728754729       21.1228857671      -14.0497250000  MEMB      143             0.0000000000
     17766       143  CHL1      C10            20.1099603731       22.0551882058      -14.6722350000  MEMB      143             0.0000000000
     17767       143  CHL1      C19            19.2186018031       23.3035646482      -14.2605150000  MEMB      143             0.0000000000
     17768       143  CHL1      H19A           18.4978758767       23.5962315946      -15.0537550000  MEMB      143             0.0000000000
     17769       143  CHL1      H19B           18.6661253079       23.1839517821      -13.3040650000  MEMB      143             0.0000000000
     17770       143  CHL1      H19C           19.8724217504       24.1928802007      -14.1341450000  MEMB      143             0.0000000000
     17771       143  CHL1      C1             20.7500134309       22.2789478849      -16.0911050000  MEMB      143             0.0000000000
     17772       143  CHL1      H1A            21.3200901001       23.1895156437      -15.8079250000  MEMB      143             0.0000000000
     17773       143  CHL1      H1B            21.4324078343       21.4278548544      -16.3015750000  MEMB      143             0.0000000000
     17774       143  CHL1      C2             19.8247363691       22.4551484795      -17.2347750000  MEMB      143             0.0000000000
     17775       143  CHL1      H2A            20.3518149311       22.7708267275      -18.1604350000  MEMB      143             0.0000000000
     17776       143  CHL1      H2B            19.1133270297       23.2838285876      -17.0310050000  MEMB      143             0.0000000000
     17777       143  CHL1      C20            23.6331191913       21.7770475397       -8.4826550000  MEMB      143             0.0000000000
     17778       143  CHL1      H20            22.7003989232       21.7379327664       -7.8802850000  MEMB      143             0.0000000000
     17779       143  CHL1      C21            24.1654849300       23.1728572054       -8.6133750000  MEMB      143             0.0000000000
     17780       143  CHL1      H21A           25.1150271855       23.1275341599       -9.1883850000  MEMB      143             0.0000000000
     17781       143  CHL1      H21B           24.2788114476       23.7005081878       -7.6422550000  MEMB      143             0.0000000000
     17782       143  CHL1      H21C           23.4633104289       23.8249345769       -9.1755550000  MEMB      143             0.0000000000
     17783       143  CHL1      C22            24.6554141100       20.9237052500       -7.6963050000  MEMB      143             0.0000000000
     17784       143  CHL1      H22A           24.2184438760       19.9136790607       -7.5438850000  MEMB      143             0.0000000000
     17785       143  CHL1      H22B           25.6297336923       20.8538101946       -8.2256050000  MEMB      143             0.0000000000
     17786       143  CHL1      C23            25.0251454750       21.3593405739       -6.2725150000  MEMB      143             0.0000000000
     17787       143  CHL1      H23A           25.8014804654       20.6702114058       -5.8766450000  MEMB      143             0.0000000000
     17788       143  CHL1      H23B           25.4632248872       22.3770816011       -6.3537650000  MEMB      143             0.0000000000
     17789       143  CHL1      C24            23.7790063426       21.5352732615       -5.3658750000  MEMB      143             0.0000000000
     17790       143  CHL1      H24A           23.1399287295       22.3654626327       -5.7356050000  MEMB      143             0.0000000000
     17791       143  CHL1      H24B           23.0913730530       20.6660506425       -5.4429450000  MEMB      143             0.0000000000
     17792       143  CHL1      C25            24.1579947191       21.8057212029       -3.8806850000  MEMB      143             0.0000000000
     17793       143  CHL1      H25            24.8829918760       22.6459707322       -3.8289750000  MEMB      143             0.0000000000
     17794       143  CHL1      C26            22.9180914762       22.2799905791       -3.1809050000  MEMB      143             0.0000000000
     17795       143  CHL1      H26A           22.3260426971       21.3699724479       -2.9449650000  MEMB      143             0.0000000000
     17796       143  CHL1      H26B           23.2244587069       22.8868401971       -2.3021650000  MEMB      143             0.0000000000
     17797       143  CHL1      H26C           22.2993977993       22.9559962283       -3.8090450000  MEMB      143             0.0000000000
     17798       143  CHL1      C27            24.6709043067       20.6492246294       -3.0597350000  MEMB      143             0.0000000000
     17799       143  CHL1      H27A           24.0307586150       19.7527413970       -3.2041250000  MEMB      143             0.0000000000
     17800       143  CHL1      H27B           25.6230835348       20.3517585444       -3.5488050000  MEMB      143             0.0000000000
     17801       143  CHL1      H27C           24.6797655982       20.9167355712       -1.9814550000  MEMB      143             0.0000000000
     17802       144  DOPC      N             -31.1184456608       -0.0300289254      -19.8964543409  MEMB      144             0.0000000000
     17803       144  DOPC      C12           -29.8029018121        0.7825183165      -20.0338198020  MEMB      144             0.0000000000
     17804       144  DOPC      H12A          -29.6748687068        1.4707982044      -19.2114583650  MEMB      144             0.0000000000
     17805       144  DOPC      H12B          -29.9566101701        1.4684561427      -20.8537361860  MEMB      144             0.0000000000
     17806       144  DOPC      C13           -31.2653638289       -0.8107529832      -18.6268060061  MEMB      144             0.0000000000
     17807       144  DOPC      H13A          -30.4343290651       -1.4811348496      -18.4644196997  MEMB      144             0.0000000000
     17808       144  DOPC      H13B          -31.2779677840       -0.1028717765      -17.8112415395  MEMB      144             0.0000000000
     17809       144  DOPC      H13C          -32.1842765965       -1.3708462965      -18.5357289342  MEMB      144             0.0000000000
     17810       144  DOPC      C14           -31.3567652499       -0.8747537443      -21.1147913073  MEMB      144             0.0000000000
     17811       144  DOPC      H14A          -32.3606546274       -1.2721376165      -21.0884749522  MEMB      144             0.0000000000
     17812       144  DOPC      H14B          -31.2463037133       -0.4009565491      -22.0790082344  MEMB      144             0.0000000000
     17813       144  DOPC      H14C          -30.6694060172       -1.7059053198      -21.0588964360  MEMB      144             0.0000000000
     17814       144  DOPC      C15           -32.3099021289        1.0390477345      -19.8989861284  MEMB      144             0.0000000000
     17815       144  DOPC      H15A          -33.1346006513        0.3793316231      -20.1249220093  MEMB      144             0.0000000000
     17816       144  DOPC      H15B          -32.1498897754        1.8248016918      -20.6224409055  MEMB      144             0.0000000000
     17817       144  DOPC      H15C          -32.4062784977        1.4723108960      -18.9144076792  MEMB      144             0.0000000000
     17818       144  DOPC      C11           -28.4431832124        0.0727022392      -20.1939799233  MEMB      144             0.0000000000
     17819       144  DOPC      H11A          -28.5386285868       -0.4970111510      -21.1429993334  MEMB      144             0.0000000000
     17820       144  DOPC      H11B          -27.6084108983        0.7817494301      -20.3803356080  MEMB      144             0.0000000000
     17821       144  DOPC      P             -27.4837229288       -0.2474839900      -17.7797304702  MEMB      144             0.0000000000
     17822       144  DOPC      O13           -27.9420712014        1.1216843172      -17.5716353174  MEMB      144             0.0000000000
     17823       144  DOPC      O14           -26.0848225997       -0.5424149575      -18.0693171268  MEMB      144             0.0000000000
     17824       144  DOPC      O12           -28.2310891228       -0.8725803106      -19.1303725082  MEMB      144             0.0000000000
     17825       144  DOPC      O11           -28.0822793551       -1.2327484325      -16.6841070667  MEMB      144             0.0000000000
     17826       144  DOPC      C1            -28.1297115136       -2.6440454845      -17.0114556366  MEMB      144             0.0000000000
     17827       144  DOPC      HA            -27.1765732301       -3.0537949982      -17.4088894847  MEMB      144             0.0000000000
     17828       144  DOPC      HB            -28.9414631949       -2.8414477667      -17.7438575964  MEMB      144             0.0000000000
     17829       144  DOPC      C2            -28.7703024148       -3.4145114970      -15.8011412806  MEMB      144             0.0000000000
     17830       144  DOPC      HS            -29.2802211031       -4.3263437398      -16.1791172374  MEMB      144             0.0000000000
     17831       144  DOPC      O21           -29.7006434075       -2.5193833535      -15.1557397312  MEMB      144             0.0000000000
     17832       144  DOPC      C21           -30.6781032552       -3.1593446270      -14.4818610618  MEMB      144             0.0000000000
     17833       144  DOPC      O22           -30.8427000028       -4.3616753617      -14.4483724916  MEMB      144             0.0000000000
     17834       144  DOPC      C22           -31.6323060004       -2.1484353529      -13.8315406815  MEMB      144             0.0000000000
     17835       144  DOPC      H2R           -32.3190020297       -2.6888253256      -13.1454293048  MEMB      144             0.0000000000
     17836       144  DOPC      H2S           -32.2108480646       -1.7003293563      -14.6674894170  MEMB      144             0.0000000000
     17837       144  DOPC      C3            -27.7464974364       -3.9392057034      -14.7609272269  MEMB      144             0.0000000000
     17838       144  DOPC      HX            -27.0244896529       -4.5856326814      -15.3042118638  MEMB      144             0.0000000000
     17839       144  DOPC      HY            -28.2573402594       -4.4957625870      -13.9463078751  MEMB      144             0.0000000000
     17840       144  DOPC      O31           -27.0289402345       -2.8432643490      -14.1503911440  MEMB      144             0.0000000000
     17841       144  DOPC      C31           -26.2210212234       -3.1079705854      -13.2347892063  MEMB      144             0.0000000000
     17842       144  DOPC      O32           -25.9046508423       -4.1397097466      -12.7687851760  MEMB      144             0.0000000000
     17843       144  DOPC      C32           -25.4918206783       -1.8193231787      -12.7953243852  MEMB      144             0.0000000000
     17844       144  DOPC      H2X           -26.0440606183       -1.2515140305      -12.0162579027  MEMB      144             0.0000000000
     17845       144  DOPC      H2Y           -24.4844194794       -2.0974333812      -12.4183379484  MEMB      144             0.0000000000
     17846       144  DOPC      C23           -30.8862481372       -1.1098603155      -13.0977459071  MEMB      144             0.0000000000
     17847       144  DOPC      H3R           -31.8182428913       -0.7407156733      -12.6187479243  MEMB      144             0.0000000000
     17848       144  DOPC      H3S           -30.3405212396       -0.3703799405      -13.7219830609  MEMB      144             0.0000000000
     17849       144  DOPC      C24           -29.9840248515       -1.6520058396      -12.0225879600  MEMB      144             0.0000000000
     17850       144  DOPC      H4R           -29.4953944970       -0.7556214805      -11.5843455543  MEMB      144             0.0000000000
     17851       144  DOPC      H4S           -29.1138147364       -2.1654933957      -12.4845251630  MEMB      144             0.0000000000
     17852       144  DOPC      C25           -30.7013952489       -2.3815197410      -10.9922606997  MEMB      144             0.0000000000
     17853       144  DOPC      H5R           -31.0504995525       -3.4106813040      -11.2230710857  MEMB      144             0.0000000000
     17854       144  DOPC      H5S           -31.6466698100       -1.8247461557      -10.8168181847  MEMB      144             0.0000000000
     17855       144  DOPC      C26           -29.8941467417       -2.6462762093       -9.6471259238  MEMB      144             0.0000000000
     17856       144  DOPC      H6R           -30.5286209434       -3.2859071179       -8.9970209673  MEMB      144             0.0000000000
     17857       144  DOPC      H6S           -29.7981892036       -1.6679158633       -9.1295122278  MEMB      144             0.0000000000
     17858       144  DOPC      C27           -28.5228242049       -3.2674692364      -10.0109411471  MEMB      144             0.0000000000
     17859       144  DOPC      H7R           -27.8519103812       -2.4621649976      -10.3792900713  MEMB      144             0.0000000000
     17860       144  DOPC      H7S           -28.5421801446       -4.0630869713      -10.7861438004  MEMB      144             0.0000000000
     17861       144  DOPC      C28           -27.8682893198       -3.7967502579       -8.7548126690  MEMB      144             0.0000000000
     17862       144  DOPC      H8R           -28.3018396183       -4.7690932402       -8.4371590687  MEMB      144             0.0000000000
     17863       144  DOPC      H8S           -27.9735563860       -3.1200212626       -7.8800107488  MEMB      144             0.0000000000
     17864       144  DOPC      C29           -26.4167594594       -4.2495784015       -8.8874347529  MEMB      144             0.0000000000
     17865       144  DOPC      H9R           -26.2726367223       -4.9967179280       -9.6817964536  MEMB      144             0.0000000000
     17866       144  DOPC      C210          -25.3063348819       -3.7092305969       -8.3166657319  MEMB      144             0.0000000000
     17867       144  DOPC      H10R          -24.3645945890       -4.2775726588       -8.3272657643  MEMB      144             0.0000000000
     17868       144  DOPC      C211          -25.3171380823       -2.4619221032       -7.4431202172  MEMB      144             0.0000000000
     17869       144  DOPC      H11R          -26.1564179107       -1.8404201517       -7.8221531201  MEMB      144             0.0000000000
     17870       144  DOPC      H11S          -24.2832906453       -2.0575564470       -7.4874932425  MEMB      144             0.0000000000
     17871       144  DOPC      C212          -25.6861132626       -2.6097971676       -5.9277720744  MEMB      144             0.0000000000
     17872       144  DOPC      H12R          -24.9120397691       -3.2390007564       -5.4386561188  MEMB      144             0.0000000000
     17873       144  DOPC      H12S          -26.6802351665       -3.1041433279       -5.9685714525  MEMB      144             0.0000000000
     17874       144  DOPC      C213          -25.7000424247       -1.1916821940       -5.3633091760  MEMB      144             0.0000000000
     17875       144  DOPC      H13R          -26.2892766825       -0.4859146669       -5.9870198612  MEMB      144             0.0000000000
     17876       144  DOPC      H13S          -24.6619158233       -0.8283538663       -5.2064434972  MEMB      144             0.0000000000
     17877       144  DOPC      C214          -26.3565170614       -1.2614869162       -4.0086134605  MEMB      144             0.0000000000
     17878       144  DOPC      H14R          -25.9840148644       -2.0778731185       -3.3535743303  MEMB      144             0.0000000000
     17879       144  DOPC      H14S          -27.4137222573       -1.5282253868       -4.2218937755  MEMB      144             0.0000000000
     17880       144  DOPC      C215          -26.5969795467        0.0180977560       -3.2527400960  MEMB      144             0.0000000000
     17881       144  DOPC      H15R          -26.9149616748       -0.2348278469       -2.2187007832  MEMB      144             0.0000000000
     17882       144  DOPC      H15S          -27.4280424176        0.5797072012       -3.7304948957  MEMB      144             0.0000000000
     17883       144  DOPC      C216          -25.4197577045        0.9447608317       -3.1063420585  MEMB      144             0.0000000000
     17884       144  DOPC      H16R          -25.7545859629        1.9298682936       -2.7167596416  MEMB      144             0.0000000000
     17885       144  DOPC      H16S          -24.9734476088        1.1160689665       -4.1092286121  MEMB      144             0.0000000000
     17886       144  DOPC      C217          -24.2642150843        0.3265741614       -2.3449905507  MEMB      144             0.0000000000
     17887       144  DOPC      H17R          -23.4171102355        1.0131961636       -2.5577901401  MEMB      144             0.0000000000
     17888       144  DOPC      H17S          -24.0413214955       -0.6952085499       -2.7199565608  MEMB      144             0.0000000000
     17889       144  DOPC      C218          -24.3280233437        0.3971719226       -0.8257256562  MEMB      144             0.0000000000
     17890       144  DOPC      H18R          -23.5895243569       -0.3188743315       -0.4059435441  MEMB      144             0.0000000000
     17891       144  DOPC      H18S          -25.3561047379        0.1249195212       -0.5044026165  MEMB      144             0.0000000000
     17892       144  DOPC      H18T          -24.1518124176        1.4224098624       -0.4356519409  MEMB      144             0.0000000000
     17893       144  DOPC      C33           -25.1056348844       -0.8818841520      -13.9343635460  MEMB      144             0.0000000000
     17894       144  DOPC      H3X           -24.6966146189       -1.3915071763      -14.8328662141  MEMB      144             0.0000000000
     17895       144  DOPC      H3Y           -24.2387364882       -0.3770933035      -13.4568756277  MEMB      144             0.0000000000
     17896       144  DOPC      C34           -26.0642532133        0.2342330901      -14.2089487200  MEMB      144             0.0000000000
     17897       144  DOPC      H4X           -26.8572222456       -0.1296476013      -14.8967802824  MEMB      144             0.0000000000
     17898       144  DOPC      H4Y           -25.5722617571        1.0521490973      -14.7775250156  MEMB      144             0.0000000000
     17899       144  DOPC      C35           -26.8127072355        0.9294247519      -13.0574949755  MEMB      144             0.0000000000
     17900       144  DOPC      H5X           -26.0696639026        1.2495891271      -12.2961129764  MEMB      144             0.0000000000
     17901       144  DOPC      H5Y           -27.5174320290        0.1879089787      -12.6240918908  MEMB      144             0.0000000000
     17902       144  DOPC      C36           -27.7984326992        2.0976749217      -13.5508763431  MEMB      144             0.0000000000
     17903       144  DOPC      H6X           -27.2769047721        2.8995717392      -14.1159348700  MEMB      144             0.0000000000
     17904       144  DOPC      H6Y           -28.6676764234        1.6570037624      -14.0843039387  MEMB      144             0.0000000000
     17905       144  DOPC      C37           -28.4012215850        2.9584174368      -12.4286074034  MEMB      144             0.0000000000
     17906       144  DOPC      H7X           -27.6034990460        3.6620305909      -12.1078451781  MEMB      144             0.0000000000
     17907       144  DOPC      H7Y           -29.2619629859        3.5101789629      -12.8633533465  MEMB      144             0.0000000000
     17908       144  DOPC      C38           -28.9026371184        2.1840844572      -11.2187419264  MEMB      144             0.0000000000
     17909       144  DOPC      H8X           -28.0014217528        1.6386890057      -10.8656480027  MEMB      144             0.0000000000
     17910       144  DOPC      H8Y           -29.6272886720        1.3889055187      -11.4960353011  MEMB      144             0.0000000000
     17911       144  DOPC      C39           -29.4176980241        3.1635343070      -10.1719798765  MEMB      144             0.0000000000
     17912       144  DOPC      H9X           -30.3182447176        3.7206733307      -10.4696571015  MEMB      144             0.0000000000
     17913       144  DOPC      C310          -29.1197469285        3.2720795999       -8.8546042259  MEMB      144             0.0000000000
     17914       144  DOPC      H10X          -29.7126347114        3.9727533084       -8.2483526672  MEMB      144             0.0000000000
     17915       144  DOPC      C311          -28.1798779768        2.4409482489       -8.0885876922  MEMB      144             0.0000000000
     17916       144  DOPC      H11X          -27.3630205812        3.1286254587       -7.7817241223  MEMB      144             0.0000000000
     17917       144  DOPC      H11Y          -27.6893684723        1.7013719297       -8.7569800447  MEMB      144             0.0000000000
     17918       144  DOPC      C312          -28.8230262300        1.6537461007       -6.9413116515  MEMB      144             0.0000000000
     17919       144  DOPC      H12X          -29.3834445152        2.2795804124       -6.2142735318  MEMB      144             0.0000000000
     17920       144  DOPC      H12Y          -28.1196576584        1.0001099694       -6.3824255277  MEMB      144             0.0000000000
     17921       144  DOPC      C313          -29.9187867168        0.7084718474       -7.5454181191  MEMB      144             0.0000000000
     17922       144  DOPC      H13X          -30.5612218673        1.2224759744       -8.2920093455  MEMB      144             0.0000000000
     17923       144  DOPC      H13Y          -29.3508632615       -0.0776242719       -8.0874854666  MEMB      144             0.0000000000
     17924       144  DOPC      C314          -30.7789426411       -0.0429985481       -6.4729160335  MEMB      144             0.0000000000
     17925       144  DOPC      H14X          -31.3355301115        0.6766579538       -5.8352440631  MEMB      144             0.0000000000
     17926       144  DOPC      H14Y          -31.5572297867       -0.5947583821       -7.0422589730  MEMB      144             0.0000000000
     17927       144  DOPC      C315          -29.9825144066       -1.0727696947       -5.6248459380  MEMB      144             0.0000000000
     17928       144  DOPC      H15X          -29.5276066585       -0.3935606113       -4.8724802314  MEMB      144             0.0000000000
     17929       144  DOPC      H15Y          -29.2764164874       -1.7379966123       -6.1663436768  MEMB      144             0.0000000000
     17930       144  DOPC      C316          -30.9520405639       -2.0126339931       -4.8536100150  MEMB      144             0.0000000000
     17931       144  DOPC      H16X          -31.9646827408       -1.6534684933       -4.5709843918  MEMB      144             0.0000000000
     17932       144  DOPC      H16Y          -31.1480433791       -2.8827210598       -5.5160695617  MEMB      144             0.0000000000
     17933       144  DOPC      C317          -30.3910299772       -2.7013554800       -3.6648270475  MEMB      144             0.0000000000
     17934       144  DOPC      H17X          -31.0295590057       -3.6070141676       -3.5849272425  MEMB      144             0.0000000000
     17935       144  DOPC      H17Y          -29.3331044998       -2.9546382698       -3.8905761645  MEMB      144             0.0000000000
     17936       144  DOPC      C318          -30.3741698739       -1.7650914502       -2.4675941351  MEMB      144             0.0000000000
     17937       144  DOPC      H18X          -29.8368665897       -0.8336555802       -2.7469744291  MEMB      144             0.0000000000
     17938       144  DOPC      H18Y          -31.4183844319       -1.5819561931       -2.1353320235  MEMB      144             0.0000000000
     17939       144  DOPC      H18Z          -29.7958459389       -2.2288866544       -1.6400942014  MEMB      144             0.0000000000
     17940       145  23SM      N              14.7213806873      -26.6242523155      -28.0692475675  MEMB      145             0.0000000000
     17941       145  23SM      C15            13.9114237910      -27.8828329909      -27.9427413816  MEMB      145             0.0000000000
     17942       145  23SM      H15A           13.2105082784      -28.1071459844      -28.7331851471  MEMB      145             0.0000000000
     17943       145  23SM      H15B           13.3400412920      -27.8345973975      -27.0275390418  MEMB      145             0.0000000000
     17944       145  23SM      H15C           14.6198408673      -28.6861337709      -27.8039859225  MEMB      145             0.0000000000
     17945       145  23SM      C14            15.9272233978      -26.7612956364      -27.0938568002  MEMB      145             0.0000000000
     17946       145  23SM      H14A           16.7486250503      -26.0899824282      -27.2964346474  MEMB      145             0.0000000000
     17947       145  23SM      H14B           16.3471099681      -27.7445027609      -27.2468248924  MEMB      145             0.0000000000
     17948       145  23SM      H14C           15.6628555227      -26.6119184214      -26.0574225440  MEMB      145             0.0000000000
     17949       145  23SM      C13            15.3766484288      -26.5314776699      -29.4541984413  MEMB      145             0.0000000000
     17950       145  23SM      H13A           16.0470205229      -25.6847232262      -29.4513570483  MEMB      145             0.0000000000
     17951       145  23SM      H13B           14.6994499195      -26.5203740750      -30.2954353122  MEMB      145             0.0000000000
     17952       145  23SM      H13C           15.9656836285      -27.4073592055      -29.6828231849  MEMB      145             0.0000000000
     17953       145  23SM      C12            13.8574282996      -25.3962897736      -27.6779528973  MEMB      145             0.0000000000
     17954       145  23SM      H12A           13.2228021323      -25.1287220412      -28.5098526276  MEMB      145             0.0000000000
     17955       145  23SM      H12B           14.5308350104      -24.5794997534      -27.4639966844  MEMB      145             0.0000000000
     17956       145  23SM      C11            13.0044766261      -25.3494756621      -26.3735505269  MEMB      145             0.0000000000
     17957       145  23SM      H11A           12.3028350873      -26.2074227092      -26.4506672773  MEMB      145             0.0000000000
     17958       145  23SM      H11B           12.4544204171      -24.3929688912      -26.5033731184  MEMB      145             0.0000000000
     17959       145  23SM      P              12.8247534720      -25.6212269740      -23.8444380870  MEMB      145             0.0000000000
     17960       145  23SM      O13            11.4299871463      -25.2321463121      -24.1672037229  MEMB      145             0.0000000000
     17961       145  23SM      O14            13.0159104894      -26.9992450845      -23.2915296499  MEMB      145             0.0000000000
     17962       145  23SM      O11            13.4551871621      -24.5541219676      -22.8694254421  MEMB      145             0.0000000000
     17963       145  23SM      O12            13.7560988989      -25.4259234115      -25.2158554886  MEMB      145             0.0000000000
     17964       145  23SM      C1S            12.6279771665      -24.1979630071      -21.6903086108  MEMB      145             0.0000000000
     17965       145  23SM      H1S            11.5783914824      -23.9891014270      -21.9887506828  MEMB      145             0.0000000000
     17966       145  23SM      H1T            13.1888964172      -23.3531363150      -21.2364817731  MEMB      145             0.0000000000
     17967       145  23SM      NF             11.6740354977      -24.6909175657      -19.5001147827  MEMB      145             0.0000000000
     17968       145  23SM      HNF            12.1550291621      -24.3743124633      -18.6862260704  MEMB      145             0.0000000000
     17969       145  23SM      C2S            12.5899103480      -25.2156654955      -20.5208734930  MEMB      145             0.0000000000
     17970       145  23SM      H2S            12.1846617528      -26.2047376203      -20.8239098412  MEMB      145             0.0000000000
     17971       145  23SM      C3S            13.9207325634      -25.3537437115      -19.8422519247  MEMB      145             0.0000000000
     17972       145  23SM      H3S            14.3038215073      -24.3302062055      -19.6424148429  MEMB      145             0.0000000000
     17973       145  23SM      O3             14.8825936309      -26.1301123457      -20.6469577472  MEMB      145             0.0000000000
     17974       145  23SM      HO3            14.5644430786      -26.0134570771      -21.5451626070  MEMB      145             0.0000000000
     17975       145  23SM      C4S            13.7603989007      -26.0882522615      -18.5370928269  MEMB      145             0.0000000000
     17976       145  23SM      H4S            13.1450047403      -26.9773097420      -18.7392487525  MEMB      145             0.0000000000
     17977       145  23SM      C5S            14.2104517055      -25.7678856098      -17.3751013064  MEMB      145             0.0000000000
     17978       145  23SM      H5S            14.7170930731      -24.7942577929      -17.3018649332  MEMB      145             0.0000000000
     17979       145  23SM      C6S            14.0653045459      -26.5083314825      -16.0821055147  MEMB      145             0.0000000000
     17980       145  23SM      H6S            15.0533076771      -26.9601008127      -15.8495641816  MEMB      145             0.0000000000
     17981       145  23SM      H6T            13.3546049252      -27.3554221832      -16.1901069516  MEMB      145             0.0000000000
     17982       145  23SM      C7S            13.5780193476      -25.6230771554      -14.9455246342  MEMB      145             0.0000000000
     17983       145  23SM      H7S            12.5090593386      -25.8212462296      -14.7166698473  MEMB      145             0.0000000000
     17984       145  23SM      H7T            13.7393927379      -24.5358489374      -15.1074329931  MEMB      145             0.0000000000
     17985       145  23SM      C8S            14.4798181793      -25.8557121088      -13.7390389993  MEMB      145             0.0000000000
     17986       145  23SM      H8S            15.5363899985      -25.6477008278      -14.0123673438  MEMB      145             0.0000000000
     17987       145  23SM      H8T            14.3405240212      -26.9323372985      -13.5028265294  MEMB      145             0.0000000000
     17988       145  23SM      C9S            14.0720635323      -24.8044735615      -12.7043924825  MEMB      145             0.0000000000
     17989       145  23SM      H9S            13.0913801814      -25.0780770405      -12.2597327597  MEMB      145             0.0000000000
     17990       145  23SM      H9T            13.9581499175      -23.8166239695      -13.1998695521  MEMB      145             0.0000000000
     17991       145  23SM      C10S           15.1732528909      -24.6177280150      -11.6476167954  MEMB      145             0.0000000000
     17992       145  23SM      H10S           15.1168869693      -23.5713503556      -11.2785137358  MEMB      145             0.0000000000
     17993       145  23SM      H10T           16.1703562369      -24.8000078963      -12.1024572427  MEMB      145             0.0000000000
     17994       145  23SM      C11S           15.0338595057      -25.5538636400      -10.4736327347  MEMB      145             0.0000000000
     17995       145  23SM      H11S           15.2181448014      -26.5702596857      -10.8826555174  MEMB      145             0.0000000000
     17996       145  23SM      H11T           13.9524487260      -25.5027176653      -10.2241218342  MEMB      145             0.0000000000
     17997       145  23SM      C12S           15.9080269210      -25.1553700444       -9.3580986495  MEMB      145             0.0000000000
     17998       145  23SM      H12S           15.8871649020      -24.0759133045       -9.0960726520  MEMB      145             0.0000000000
     17999       145  23SM      H12T           16.9711164452      -25.4378556778       -9.5141872695  MEMB      145             0.0000000000
     18000       145  23SM      C13S           15.4819653465      -25.8639876547       -8.0343707426  MEMB      145             0.0000000000
     18001       145  23SM      H13S           15.7454566462      -26.9366074336       -8.1542875396  MEMB      145             0.0000000000
     18002       145  23SM      H13T           14.3720700800      -25.9101891558       -8.0165110890  MEMB      145             0.0000000000
     18003       145  23SM      C14S           16.0909974001      -25.1984931735       -6.7989493939  MEMB      145             0.0000000000
     18004       145  23SM      H14S           15.8332583482      -24.1306551685       -6.6327770301  MEMB      145             0.0000000000
     18005       145  23SM      H14T           17.2011621967      -25.2342806279       -6.8229216844  MEMB      145             0.0000000000
     18006       145  23SM      C15S           15.6601892092      -25.7910631168       -5.4339132427  MEMB      145             0.0000000000
     18007       145  23SM      H15S           15.9141429826      -26.8634722467       -5.2933186771  MEMB      145             0.0000000000
     18008       145  23SM      H15T           14.5716757155      -25.9686209619       -5.5678250127  MEMB      145             0.0000000000
     18009       145  23SM      C16S           16.0509631916      -24.9828574534       -4.1853625955  MEMB      145             0.0000000000
     18010       145  23SM      H16S           15.5924795688      -23.9733029246       -4.1152649675  MEMB      145             0.0000000000
     18011       145  23SM      H16T           17.1130852609      -24.6571551134       -4.1737282229  MEMB      145             0.0000000000
     18012       145  23SM      C17S           15.7868150327      -25.6881910991       -2.8729133449  MEMB      145             0.0000000000
     18013       145  23SM      H17S           16.5364919279      -26.5053621778       -2.8055557511  MEMB      145             0.0000000000
     18014       145  23SM      H17T           14.8448135084      -26.2553148015       -2.7137750827  MEMB      145             0.0000000000
     18015       145  23SM      C18S           16.0578094534      -24.7841946493       -1.6319222516  MEMB      145             0.0000000000
     18016       145  23SM      H18S           17.0006307708      -24.2133171557       -1.7715929489  MEMB      145             0.0000000000
     18017       145  23SM      H18T           16.2951803399      -25.3314919961       -0.6946704117  MEMB      145             0.0000000000
     18018       145  23SM      H18U           15.2188401570      -24.1073679922       -1.3629310673  MEMB      145             0.0000000000
     18019       145  23SM      C1F            10.3159153509      -24.8157979716      -19.5347722969  MEMB      145             0.0000000000
     18020       145  23SM      OF              9.7780157876      -25.5049461101      -20.3973701024  MEMB      145             0.0000000000
     18021       145  23SM      C2F             9.5578391605      -24.2466477919      -18.3551346331  MEMB      145             0.0000000000
     18022       145  23SM      H2F             8.4540336093      -24.3353374494      -18.4449584044  MEMB      145             0.0000000000
     18023       145  23SM      H2G             9.8163090479      -23.1661346165      -18.3526755558  MEMB      145             0.0000000000
     18024       145  23SM      C3F            10.0026073032      -24.9365420984      -16.9515353021  MEMB      145             0.0000000000
     18025       145  23SM      H3F            11.1084192691      -25.0348771408      -16.9943252414  MEMB      145             0.0000000000
     18026       145  23SM      H3G             9.7965303761      -26.0282586265      -16.9485746702  MEMB      145             0.0000000000
     18027       145  23SM      C4F             9.4985918750      -24.1821589883      -15.7324173060  MEMB      145             0.0000000000
     18028       145  23SM      H4F             9.5184751016      -24.9873832393      -14.9672120788  MEMB      145             0.0000000000
     18029       145  23SM      H4G             8.4755993691      -23.7712774769      -15.8701981975  MEMB      145             0.0000000000
     18030       145  23SM      C5F            10.5376827662      -23.0507179984      -15.2106023192  MEMB      145             0.0000000000
     18031       145  23SM      H5F            10.6014974063      -22.3415250175      -16.0634172877  MEMB      145             0.0000000000
     18032       145  23SM      H5G            11.5059829058      -23.5841175894      -15.3210579077  MEMB      145             0.0000000000
     18033       145  23SM      C6F            10.2872285437      -22.4227843694      -13.8203416338  MEMB      145             0.0000000000
     18034       145  23SM      H6F            10.2066995534      -23.2690700720      -13.1050534904  MEMB      145             0.0000000000
     18035       145  23SM      H6G             9.2853479137      -21.9487832805      -13.8970168901  MEMB      145             0.0000000000
     18036       145  23SM      C7F            11.2508297724      -21.3431811831      -13.3698280036  MEMB      145             0.0000000000
     18037       145  23SM      H7F            11.1221850033      -20.5373085504      -14.1237116547  MEMB      145             0.0000000000
     18038       145  23SM      H7G            12.3098035080      -21.6782738471      -13.3944855855  MEMB      145             0.0000000000
     18039       145  23SM      C8F            10.9378494522      -20.6105601460      -12.0514390091  MEMB      145             0.0000000000
     18040       145  23SM      H8F            10.0009813703      -20.0221305998      -12.1531765063  MEMB      145             0.0000000000
     18041       145  23SM      H8G            11.6779527030      -19.7849846878      -11.9807774599  MEMB      145             0.0000000000
     18042       145  23SM      C9F            10.9208958447      -21.3551167970      -10.7223895172  MEMB      145             0.0000000000
     18043       145  23SM      H9F            10.1041805455      -22.0981052680      -10.8459419159  MEMB      145             0.0000000000
     18044       145  23SM      H9G            10.6272330877      -20.6953974260       -9.8780831110  MEMB      145             0.0000000000
     18045       145  23SM      C10F           12.2570310833      -22.0905689196      -10.5497676513  MEMB      145             0.0000000000
     18046       145  23SM      H10F           12.9120508581      -21.3411538241      -10.0561610620  MEMB      145             0.0000000000
     18047       145  23SM      H10G           12.8304303812      -22.3260414435      -11.4717690447  MEMB      145             0.0000000000
     18048       145  23SM      C11F           12.1516047491      -23.2979936192       -9.6661945372  MEMB      145             0.0000000000
     18049       145  23SM      H11F           13.1963199716      -23.6681578778       -9.5895820680  MEMB      145             0.0000000000
     18050       145  23SM      H11G           11.6124177879      -24.1681345723      -10.0979969204  MEMB      145             0.0000000000
     18051       145  23SM      C12F           11.6040709751      -23.1129931588       -8.1878910230  MEMB      145             0.0000000000
     18052       145  23SM      H12F           10.5083837101      -22.9321804391       -8.2210156976  MEMB      145             0.0000000000
     18053       145  23SM      H12G           12.1879619672      -22.2413796047       -7.8222657555  MEMB      145             0.0000000000
     18054       145  23SM      C13F           11.8557821728      -24.3616922160       -7.2900254265  MEMB      145             0.0000000000
     18055       145  23SM      H13F           12.9249843792      -24.6338530081       -7.1594260797  MEMB      145             0.0000000000
     18056       145  23SM      H13G           11.4163320101      -25.2214759201       -7.8395502022  MEMB      145             0.0000000000
     18057       145  23SM      C14F           11.1017126821      -24.3000567876       -5.9103182638  MEMB      145             0.0000000000
     18058       145  23SM      H14F           11.3584813539      -25.1865245801       -5.2917988683  MEMB      145             0.0000000000
     18059       145  23SM      H14G            9.9971758921      -24.4055329736       -5.9668322060  MEMB      145             0.0000000000
     18060       145  23SM      C15F           11.2616759461      -22.9420147817       -5.2183767863  MEMB      145             0.0000000000
     18061       145  23SM      H15F           10.8634315686      -22.1439374600       -5.8807924754  MEMB      145             0.0000000000
     18062       145  23SM      H15G           12.3333583040      -22.7209968258       -5.0261015161  MEMB      145             0.0000000000
     18063       145  23SM      C16F           10.5214032849      -22.9011089977       -3.8447869736  MEMB      145             0.0000000000
     18064       145  23SM      H16F            9.5201376163      -23.3593279716       -3.9925147503  MEMB      145             0.0000000000
     18065       145  23SM      H16G           10.1880237546      -21.9234950167       -3.4355806402  MEMB      145             0.0000000000
     18066       145  23SM      C17F           11.3161379726      -23.6219951877       -2.7489990793  MEMB      145             0.0000000000
     18067       145  23SM      H17F           12.2112584163      -22.9904411206       -2.5640144334  MEMB      145             0.0000000000
     18068       145  23SM      H17G           11.5276203835      -24.6663416796       -3.0635399479  MEMB      145             0.0000000000
     18069       145  23SM      C18F           10.5495922557      -23.7366547776       -1.4522784866  MEMB      145             0.0000000000
     18070       145  23SM      H18F            9.6960876784      -24.4476093344       -1.4721255741  MEMB      145             0.0000000000
     18071       145  23SM      H18G           10.0489633454      -22.7670480035       -1.2435818925  MEMB      145             0.0000000000
     18072       145  23SM      C19F           11.3421080836      -24.2328809771       -0.1890508101  MEMB      145             0.0000000000
     18073       145  23SM      H19F           12.2210096606      -24.9052956020       -0.0905031670  MEMB      145             0.0000000000
     18074       145  23SM      H19G           10.5832876618      -24.8677760951        0.3163404839  MEMB      145             0.0000000000
     18075       145  23SM      C20F           11.6873050373      -23.1329457464        0.7258849057  MEMB      145             0.0000000000
     18076       145  23SM      H20F           10.8341089836      -22.4733704621        0.9929778253  MEMB      145             0.0000000000
     18077       145  23SM      H20G           12.4381707881      -22.4755574909        0.2376610967  MEMB      145             0.0000000000
     18078       145  23SM      C21F           12.3205896718      -23.5123735946        2.0642127319  MEMB      145             0.0000000000
     18079       145  23SM      H21F           11.7867189294      -24.4027210714        2.4599205665  MEMB      145             0.0000000000
     18080       145  23SM      H21G           12.1606687790      -22.7377841169        2.8444424412  MEMB      145             0.0000000000
     18081       145  23SM      C22F           13.8751691205      -23.6608382209        1.9425231436  MEMB      145             0.0000000000
     18082       145  23SM      H22F           14.1128894986      -22.8277730528        1.2469569606  MEMB      145             0.0000000000
     18083       145  23SM      H22G           14.2006160044      -24.6151376136        1.4759205676  MEMB      145             0.0000000000
     18084       145  23SM      C23F           14.5641464243      -23.3559254816        3.2963106307  MEMB      145             0.0000000000
     18085       145  23SM      H23F           14.0368838608      -23.9224392140        4.0934171343  MEMB      145             0.0000000000
     18086       145  23SM      H23G           14.3389906394      -22.3111521871        3.5997484049  MEMB      145             0.0000000000
     18087       145  23SM      H23H           15.6174994067      -23.6690797348        3.4597203688  MEMB      145             0.0000000000
     18088       146  DOPE      N              -6.1886958055      -25.5277071686      -18.3069730653  MEMB      146             0.0000000000
     18089       146  DOPE      HN1            -5.8388951222      -24.7653342892      -18.9218119592  MEMB      146             0.0000000000
     18090       146  DOPE      HN2            -7.2186324853      -25.4892216356      -18.1678707933  MEMB      146             0.0000000000
     18091       146  DOPE      HN3            -5.7718733746      -25.4035390809      -17.3622819180  MEMB      146             0.0000000000
     18092       146  DOPE      C12            -5.7058654223      -26.7499831952      -19.0642062965  MEMB      146             0.0000000000
     18093       146  DOPE      H12A           -4.8174962191      -27.1139275855      -18.5050412309  MEMB      146             0.0000000000
     18094       146  DOPE      H12B           -5.4587569858      -26.3587156262      -20.0742400163  MEMB      146             0.0000000000
     18095       146  DOPE      C11            -6.8235776306      -27.7347754896      -19.0493127103  MEMB      146             0.0000000000
     18096       146  DOPE      H11A           -7.5538873076      -27.2634563672      -19.7412860014  MEMB      146             0.0000000000
     18097       146  DOPE      H11B           -7.2668538600      -27.9680098657      -18.0576328585  MEMB      146             0.0000000000
     18098       146  DOPE      P              -6.1632152404      -30.3095508248      -19.1465174348  MEMB      146             0.0000000000
     18099       146  DOPE      O13            -5.1444661482      -31.0411016271      -19.9687371797  MEMB      146             0.0000000000
     18100       146  DOPE      O14            -7.5592386051      -30.9046657363      -18.9851734467  MEMB      146             0.0000000000
     18101       146  DOPE      O11            -5.6159732145      -30.0317022700      -17.7469258253  MEMB      146             0.0000000000
     18102       146  DOPE      O12            -6.2984629787      -28.8619248983      -19.7321540299  MEMB      146             0.0000000000
     18103       146  DOPE      C1             -5.4134436923      -30.9559206782      -16.6920786339  MEMB      146             0.0000000000
     18104       146  DOPE      HA             -4.7362774901      -30.3943287704      -16.0135644125  MEMB      146             0.0000000000
     18105       146  DOPE      HB             -4.9580731071      -31.9457375741      -16.9093829930  MEMB      146             0.0000000000
     18106       146  DOPE      C2             -6.6187478361      -31.2668710144      -15.7535475149  MEMB      146             0.0000000000
     18107       146  DOPE      HS             -7.2914936476      -32.0057292088      -16.2391630585  MEMB      146             0.0000000000
     18108       146  DOPE      O21            -7.3489668115      -30.0276289535      -15.5479045471  MEMB      146             0.0000000000
     18109       146  DOPE      C21            -8.4186848288      -29.9608186312      -14.9185728032  MEMB      146             0.0000000000
     18110       146  DOPE      O22            -9.0189623088      -31.0162635200      -14.5409546896  MEMB      146             0.0000000000
     18111       146  DOPE      C22            -8.8068406332      -28.5456050931      -14.5213773953  MEMB      146             0.0000000000
     18112       146  DOPE      H2R            -9.8042039790      -28.5372655842      -14.0319716493  MEMB      146             0.0000000000
     18113       146  DOPE      H2S            -9.0074020084      -27.9253531212      -15.4210350432  MEMB      146             0.0000000000
     18114       146  DOPE      C3             -6.1978916617      -31.9276636685      -14.3489523097  MEMB      146             0.0000000000
     18115       146  DOPE      HX             -5.4683469054      -32.7395186947      -14.5562615125  MEMB      146             0.0000000000
     18116       146  DOPE      HY             -7.0941265014      -32.2668765059      -13.7867969550  MEMB      146             0.0000000000
     18117       146  DOPE      O31            -5.6603087320      -30.8652132741      -13.5163665368  MEMB      146             0.0000000000
     18118       146  DOPE      C31            -4.9800374971      -31.3798757666      -12.4814348806  MEMB      146             0.0000000000
     18119       146  DOPE      O32            -4.6712224614      -32.5508110286      -12.3655374043  MEMB      146             0.0000000000
     18120       146  DOPE      C32            -4.6953879847      -30.1889382700      -11.4881926877  MEMB      146             0.0000000000
     18121       146  DOPE      H2X            -4.5080252080      -29.2445252391      -12.0425391524  MEMB      146             0.0000000000
     18122       146  DOPE      H2Y            -5.5167472560      -29.9892071189      -10.7672229734  MEMB      146             0.0000000000
     18123       146  DOPE      C23            -7.8094501293      -27.9908240991      -13.4890963584  MEMB      146             0.0000000000
     18124       146  DOPE      H3R            -6.7610433316      -27.9713329727      -13.8562259288  MEMB      146             0.0000000000
     18125       146  DOPE      H3S            -7.6648972431      -28.7569592078      -12.6976029486  MEMB      146             0.0000000000
     18126       146  DOPE      C24            -8.2742479194      -26.6367037772      -13.0148921216  MEMB      146             0.0000000000
     18127       146  DOPE      H4R            -9.2822601726      -26.6902893910      -12.5508224643  MEMB      146             0.0000000000
     18128       146  DOPE      H4S            -8.3596062637      -25.9794986540      -13.9065851106  MEMB      146             0.0000000000
     18129       146  DOPE      C25            -7.2110655916      -25.8655054555      -12.2102041004  MEMB      146             0.0000000000
     18130       146  DOPE      H5R            -7.6712045583      -24.9088183007      -11.8825715624  MEMB      146             0.0000000000
     18131       146  DOPE      H5S            -6.3468181891      -25.5950428142      -12.8538246574  MEMB      146             0.0000000000
     18132       146  DOPE      C26            -6.4186541143      -26.5522622025      -11.0826114248  MEMB      146             0.0000000000
     18133       146  DOPE      H6R            -5.5690401697      -25.8594630510      -10.9023161695  MEMB      146             0.0000000000
     18134       146  DOPE      H6S            -6.0245404627      -27.5388726768      -11.4075655058  MEMB      146             0.0000000000
     18135       146  DOPE      C27            -7.1889696588      -26.6099734665       -9.7455622055  MEMB      146             0.0000000000
     18136       146  DOPE      H7R            -8.1630768545      -27.1436164834       -9.7198458363  MEMB      146             0.0000000000
     18137       146  DOPE      H7S            -7.5406458562      -25.5648692784       -9.6099080382  MEMB      146             0.0000000000
     18138       146  DOPE      C28            -6.4133410904      -27.1016733833       -8.5521574684  MEMB      146             0.0000000000
     18139       146  DOPE      H8R            -5.8362575274      -26.2568867627       -8.1189942151  MEMB      146             0.0000000000
     18140       146  DOPE      H8S            -5.6090140066      -27.8027432145       -8.8618031402  MEMB      146             0.0000000000
     18141       146  DOPE      C29            -7.2412790357      -27.6784453937       -7.4700458223  MEMB      146             0.0000000000
     18142       146  DOPE      H9R            -7.2314872016      -28.7781253184       -7.4453875550  MEMB      146             0.0000000000
     18143       146  DOPE      C210           -7.7624464207      -27.0440081078       -6.3886205987  MEMB      146             0.0000000000
     18144       146  DOPE      H10R           -8.6114125144      -27.5722649776       -5.9301431773  MEMB      146             0.0000000000
     18145       146  DOPE      C211           -7.5994472956      -25.5603785883       -6.0661732793  MEMB      146             0.0000000000
     18146       146  DOPE      H11R           -8.4814757495      -24.9869633574       -6.4233032210  MEMB      146             0.0000000000
     18147       146  DOPE      H11S           -6.7353233334      -25.1289848660       -6.6152723224  MEMB      146             0.0000000000
     18148       146  DOPE      C212           -7.3496862759      -25.2775823327       -4.5729059671  MEMB      146             0.0000000000
     18149       146  DOPE      H12R           -7.1503119230      -24.1990392266       -4.3959430434  MEMB      146             0.0000000000
     18150       146  DOPE      H12S           -6.4463470937      -25.8746609214       -4.3243172417  MEMB      146             0.0000000000
     18151       146  DOPE      C213           -8.5786252573      -25.7510859528       -3.6734218066  MEMB      146             0.0000000000
     18152       146  DOPE      H13R           -9.0456482626      -26.7154824781       -3.9669346929  MEMB      146             0.0000000000
     18153       146  DOPE      H13S           -9.5307360752      -25.1804819309       -3.7205069418  MEMB      146             0.0000000000
     18154       146  DOPE      C214           -8.1698344057      -26.0379751132       -2.1524073033  MEMB      146             0.0000000000
     18155       146  DOPE      H14R           -7.8171902553      -25.0068597410       -1.9361582921  MEMB      146             0.0000000000
     18156       146  DOPE      H14S           -7.2661107376      -26.6543077558       -1.9581435894  MEMB      146             0.0000000000
     18157       146  DOPE      C215           -9.3566761236      -26.3863964455       -1.2342041483  MEMB      146             0.0000000000
     18158       146  DOPE      H15R          -10.0799169889      -25.6004158722       -1.5399456770  MEMB      146             0.0000000000
     18159       146  DOPE      H15S           -9.0250355055      -26.3226582341       -0.1757748681  MEMB      146             0.0000000000
     18160       146  DOPE      C216          -10.0051331504      -27.7154098231       -1.6127800937  MEMB      146             0.0000000000
     18161       146  DOPE      H16R           -9.3023493055      -28.5671171074       -1.4902626911  MEMB      146             0.0000000000
     18162       146  DOPE      H16S          -10.2896826424      -27.6899114072       -2.6864190471  MEMB      146             0.0000000000
     18163       146  DOPE      C217          -11.2264228013      -27.9420111465       -0.7040057133  MEMB      146             0.0000000000
     18164       146  DOPE      H17R          -11.8494787601      -28.7033328193       -1.2202538164  MEMB      146             0.0000000000
     18165       146  DOPE      H17S          -11.7736790332      -26.9768062331       -0.6473410480  MEMB      146             0.0000000000
     18166       146  DOPE      C218          -10.7888778993      -28.3806097483        0.6428545485  MEMB      146             0.0000000000
     18167       146  DOPE      H18R          -10.4769821936      -29.4468282100        0.6280134586  MEMB      146             0.0000000000
     18168       146  DOPE      H18S          -11.6365137574      -28.2409759921        1.3473677424  MEMB      146             0.0000000000
     18169       146  DOPE      H18T           -9.9089038239      -27.8186165550        1.0224993922  MEMB      146             0.0000000000
     18170       146  DOPE      C33            -3.4189397065      -30.5417001845      -10.7033512682  MEMB      146             0.0000000000
     18171       146  DOPE      H3X            -2.6601487652      -30.8428220093      -11.4569313338  MEMB      146             0.0000000000
     18172       146  DOPE      H3Y            -3.7184256271      -31.4055320147      -10.0721430975  MEMB      146             0.0000000000
     18173       146  DOPE      C34            -2.8512777724      -29.4399199579       -9.8219568379  MEMB      146             0.0000000000
     18174       146  DOPE      H4X            -3.7006301236      -29.0811100080       -9.2021368783  MEMB      146             0.0000000000
     18175       146  DOPE      H4Y            -2.0367058738      -29.7625939887       -9.1388208496  MEMB      146             0.0000000000
     18176       146  DOPE      C35            -2.2149651808      -28.2787725824      -10.6996331372  MEMB      146             0.0000000000
     18177       146  DOPE      H5X            -2.9410559399      -27.8972250331      -11.4489892465  MEMB      146             0.0000000000
     18178       146  DOPE      H5Y            -1.4587796507      -28.8270680748      -11.3011946768  MEMB      146             0.0000000000
     18179       146  DOPE      C36            -1.7065547527      -27.1354691537       -9.8840487006  MEMB      146             0.0000000000
     18180       146  DOPE      H6X            -0.9235473721      -26.5316000478      -10.3905685615  MEMB      146             0.0000000000
     18181       146  DOPE      H6Y            -1.2400712888      -27.6522866059       -9.0182459192  MEMB      146             0.0000000000
     18182       146  DOPE      C37            -2.7809750529      -26.2593391864       -9.1970549353  MEMB      146             0.0000000000
     18183       146  DOPE      H7X            -3.3658915462      -25.7089547583       -9.9646949306  MEMB      146             0.0000000000
     18184       146  DOPE      H7Y            -3.5285092072      -26.8990908342       -8.6810792738  MEMB      146             0.0000000000
     18185       146  DOPE      C38            -2.2599629448      -25.2766335457       -8.0712770010  MEMB      146             0.0000000000
     18186       146  DOPE      H8X            -1.8740642690      -24.3487672263       -8.5450565787  MEMB      146             0.0000000000
     18187       146  DOPE      H8Y            -1.2960945423      -25.7608794324       -7.8052228774  MEMB      146             0.0000000000
     18188       146  DOPE      C39            -3.2215908202      -24.9540190848       -6.9601400690  MEMB      146             0.0000000000
     18189       146  DOPE      H9X            -3.8655629284      -24.0631865715       -7.0015807881  MEMB      146             0.0000000000
     18190       146  DOPE      C310           -3.2865020704      -25.5865791447       -5.7589544813  MEMB      146             0.0000000000
     18191       146  DOPE      H10X           -4.0517222255      -25.3797098001       -4.9962994746  MEMB      146             0.0000000000
     18192       146  DOPE      C311           -2.3784114577      -26.7119871908       -5.2934507866  MEMB      146             0.0000000000
     18193       146  DOPE      H11X           -1.6969234331      -26.8800962170       -6.1546334310  MEMB      146             0.0000000000
     18194       146  DOPE      H11Y           -1.7061232630      -26.4175169603       -4.4594026894  MEMB      146             0.0000000000
     18195       146  DOPE      C312           -3.1355475497      -28.0138476736       -4.9912646948  MEMB      146             0.0000000000
     18196       146  DOPE      H12X           -2.3825479180      -28.7968860513       -5.2239945926  MEMB      146             0.0000000000
     18197       146  DOPE      H12Y           -3.9752364729      -28.1802776627       -5.6994621371  MEMB      146             0.0000000000
     18198       146  DOPE      C313           -3.5596013405      -28.0531299469       -3.5277630238  MEMB      146             0.0000000000
     18199       146  DOPE      H13X           -2.6660508499      -28.2138154871       -2.8873970892  MEMB      146             0.0000000000
     18200       146  DOPE      H13Y           -3.9462180435      -27.0338831304       -3.3133223977  MEMB      146             0.0000000000
     18201       146  DOPE      C314           -4.5897547064      -29.1521996608       -3.2657405808  MEMB      146             0.0000000000
     18202       146  DOPE      H14X           -5.3424412932      -29.2209806533       -4.0800210999  MEMB      146             0.0000000000
     18203       146  DOPE      H14Y           -5.1444608899      -28.8131775658       -2.3648052691  MEMB      146             0.0000000000
     18204       146  DOPE      C315           -3.8548975910      -30.4700520964       -2.9225132176  MEMB      146             0.0000000000
     18205       146  DOPE      H15X           -3.0530510934      -30.2146872191       -2.1971497845  MEMB      146             0.0000000000
     18206       146  DOPE      H15Y           -3.4134507830      -30.8412821176       -3.8720565132  MEMB      146             0.0000000000
     18207       146  DOPE      C316           -4.7386785741      -31.5211020235       -2.1808028665  MEMB      146             0.0000000000
     18208       146  DOPE      H16X           -4.2584833726      -32.5209399177       -2.1171014772  MEMB      146             0.0000000000
     18209       146  DOPE      H16Y           -5.6778526527      -31.6517094505       -2.7597798796  MEMB      146             0.0000000000
     18210       146  DOPE      C317           -5.0423152480      -31.1428320565       -0.7529199852  MEMB      146             0.0000000000
     18211       146  DOPE      H17X           -4.1518200491      -30.9769152723       -0.1096387671  MEMB      146             0.0000000000
     18212       146  DOPE      H17Y           -5.7084917019      -30.2543514019       -0.7192702840  MEMB      146             0.0000000000
     18213       146  DOPE      C318           -5.8657809346      -32.1396963060       -0.0034267163  MEMB      146             0.0000000000
     18214       146  DOPE      H18X           -6.6601507255      -32.6086247601       -0.6226243557  MEMB      146             0.0000000000
     18215       146  DOPE      H18Y           -5.2528796503      -33.0611148555        0.0948674315  MEMB      146             0.0000000000
     18216       146  DOPE      H18Z           -6.1782275408      -31.8670343070        1.0272782527  MEMB      146             0.0000000000
     18217       147  DOPE      N               4.5747973189      -31.7288507415      -19.4153813694  MEMB      147             0.0000000000
     18218       147  DOPE      HN1             5.5804456743      -31.4638861798      -19.4234484797  MEMB      147             0.0000000000
     18219       147  DOPE      HN2             4.3986328834      -32.0770352874      -18.4513618287  MEMB      147             0.0000000000
     18220       147  DOPE      HN3             4.4077582048      -32.4937032108      -20.0999970455  MEMB      147             0.0000000000
     18221       147  DOPE      C12             3.6991156196      -30.5147515330      -19.6586071664  MEMB      147             0.0000000000
     18222       147  DOPE      H12A            3.6284403307      -30.4831540762      -20.7669065492  MEMB      147             0.0000000000
     18223       147  DOPE      H12B            4.2428286015      -29.6035410677      -19.3293766838  MEMB      147             0.0000000000
     18224       147  DOPE      C11             2.2998029033      -30.7393976172      -19.0858631876  MEMB      147             0.0000000000
     18225       147  DOPE      H11A            2.3822758341      -30.7335117284      -17.9779441909  MEMB      147             0.0000000000
     18226       147  DOPE      H11B            1.9182229613      -31.7372335657      -19.3908897358  MEMB      147             0.0000000000
     18227       147  DOPE      P               0.8361892651      -28.5651330553      -18.7992565822  MEMB      147             0.0000000000
     18228       147  DOPE      O13            -0.4142070105      -28.0977762029      -19.4323897537  MEMB      147             0.0000000000
     18229       147  DOPE      O14             1.6683597427      -27.3960156193      -18.4925891117  MEMB      147             0.0000000000
     18230       147  DOPE      O11             0.4961121593      -29.3596190592      -17.4527625082  MEMB      147             0.0000000000
     18231       147  DOPE      O12             1.5069835930      -29.6817489875      -19.6631503143  MEMB      147             0.0000000000
     18232       147  DOPE      C1             -0.6976634709      -29.3051184971      -16.7340325989  MEMB      147             0.0000000000
     18233       147  DOPE      HA             -0.7918699148      -30.1616989299      -16.0328080284  MEMB      147             0.0000000000
     18234       147  DOPE      HB             -1.5412428132      -29.4945701164      -17.4317452988  MEMB      147             0.0000000000
     18235       147  DOPE      C2             -0.8354376377      -28.0251738696      -15.7415120003  MEMB      147             0.0000000000
     18236       147  DOPE      HS             -0.9477575944      -27.1902325772      -16.4657898205  MEMB      147             0.0000000000
     18237       147  DOPE      O21             0.3625012531      -27.9976337797      -14.8949280682  MEMB      147             0.0000000000
     18238       147  DOPE      C21             0.8053313138      -26.8683629973      -14.5031747030  MEMB      147             0.0000000000
     18239       147  DOPE      O22             0.1794105324      -25.8273341658      -14.3812045917  MEMB      147             0.0000000000
     18240       147  DOPE      C22             2.1950110333      -27.1083821240      -13.8030663991  MEMB      147             0.0000000000
     18241       147  DOPE      H2R             2.8448961994      -27.6469708943      -14.5254876083  MEMB      147             0.0000000000
     18242       147  DOPE      H2S             1.9643288817      -27.8344781145      -12.9944313900  MEMB      147             0.0000000000
     18243       147  DOPE      C3             -2.1217129687      -28.1610677028      -14.9237564361  MEMB      147             0.0000000000
     18244       147  DOPE      HX             -3.0647097321      -27.9781937060      -15.4819993177  MEMB      147             0.0000000000
     18245       147  DOPE      HY             -2.1197831500      -27.3683732378      -14.1453265579  MEMB      147             0.0000000000
     18246       147  DOPE      O31            -2.1597296994      -29.4887944458      -14.3336756000  MEMB      147             0.0000000000
     18247       147  DOPE      C31            -2.5204334708      -29.5263235516      -13.0955352183  MEMB      147             0.0000000000
     18248       147  DOPE      O32            -2.9706060091      -28.6012506086      -12.3969270198  MEMB      147             0.0000000000
     18249       147  DOPE      C32            -2.4071798623      -31.0327221316      -12.6736399593  MEMB      147             0.0000000000
     18250       147  DOPE      H2X            -3.3963122034      -31.1962000470      -12.1948782761  MEMB      147             0.0000000000
     18251       147  DOPE      H2Y            -2.2245986650      -31.7190858640      -13.5279762248  MEMB      147             0.0000000000
     18252       147  DOPE      C23             2.9400568444      -25.8898680049      -13.3697106533  MEMB      147             0.0000000000
     18253       147  DOPE      H3R             2.4901121433      -25.3747210355      -12.4942140050  MEMB      147             0.0000000000
     18254       147  DOPE      H3S             2.9892313076      -25.1645948262      -14.2098781468  MEMB      147             0.0000000000
     18255       147  DOPE      C24             4.4153970790      -26.2132764569      -13.0076246575  MEMB      147             0.0000000000
     18256       147  DOPE      H4R             4.9352237267      -25.3217667494      -12.5961497284  MEMB      147             0.0000000000
     18257       147  DOPE      H4S             4.9252861054      -26.5311651447      -13.9421198731  MEMB      147             0.0000000000
     18258       147  DOPE      C25             4.5008540878      -27.2908568715      -11.8997391131  MEMB      147             0.0000000000
     18259       147  DOPE      H5R             5.5872442956      -27.4279164320      -11.7118779916  MEMB      147             0.0000000000
     18260       147  DOPE      H5S             4.2122879447      -28.2561763732      -12.3679364424  MEMB      147             0.0000000000
     18261       147  DOPE      C26             3.8697249308      -27.0551144907      -10.5894474226  MEMB      147             0.0000000000
     18262       147  DOPE      H6R             4.2023122951      -27.8405294357       -9.8775270171  MEMB      147             0.0000000000
     18263       147  DOPE      H6S             2.7631197472      -27.1457233278      -10.5502569199  MEMB      147             0.0000000000
     18264       147  DOPE      C27             4.1217332303      -25.6846716553       -9.9299006021  MEMB      147             0.0000000000
     18265       147  DOPE      H7R             3.7762440391      -24.8658527468      -10.5966046537  MEMB      147             0.0000000000
     18266       147  DOPE      H7S             5.1845653721      -25.5247840540       -9.6485741646  MEMB      147             0.0000000000
     18267       147  DOPE      C28             3.4905100775      -25.4678403731       -8.4785686768  MEMB      147             0.0000000000
     18268       147  DOPE      H8R             3.9016793509      -24.4707649066       -8.2119192573  MEMB      147             0.0000000000
     18269       147  DOPE      H8S             3.8125803483      -26.3255632777       -7.8501553900  MEMB      147             0.0000000000
     18270       147  DOPE      C29             1.9701776970      -25.4694420878       -8.4436801547  MEMB      147             0.0000000000
     18271       147  DOPE      H9R             1.5168942555      -25.6610864523       -9.4274517809  MEMB      147             0.0000000000
     18272       147  DOPE      C210            1.2110719221      -25.1169225539       -7.4569169381  MEMB      147             0.0000000000
     18273       147  DOPE      H10R            0.1340656867      -25.3254368555       -7.5380280790  MEMB      147             0.0000000000
     18274       147  DOPE      C211            1.5407113127      -24.5866812174       -6.0379610731  MEMB      147             0.0000000000
     18275       147  DOPE      H11R            0.7076226687      -24.0649411309       -5.5202046716  MEMB      147             0.0000000000
     18276       147  DOPE      H11S            2.3099964491      -23.7889419726       -6.1162759259  MEMB      147             0.0000000000
     18277       147  DOPE      C212            2.0498029616      -25.5950898526       -5.1177410749  MEMB      147             0.0000000000
     18278       147  DOPE      H12R            2.1215752868      -25.1720857298       -4.0929295798  MEMB      147             0.0000000000
     18279       147  DOPE      H12S            3.1235578109      -25.8393460182       -5.2650853703  MEMB      147             0.0000000000
     18280       147  DOPE      C213            1.2626049056      -26.8981108810       -4.9789854644  MEMB      147             0.0000000000
     18281       147  DOPE      H13R            1.8512775291      -27.4423676354       -4.2098498664  MEMB      147             0.0000000000
     18282       147  DOPE      H13S            1.2662820791      -27.4754079112       -5.9282143877  MEMB      147             0.0000000000
     18283       147  DOPE      C214           -0.1866317991      -26.7064607275       -4.4693919409  MEMB      147             0.0000000000
     18284       147  DOPE      H14R           -0.6631843028      -25.9830027928       -5.1649688922  MEMB      147             0.0000000000
     18285       147  DOPE      H14S           -0.1021599425      -26.4151430442       -3.4005984526  MEMB      147             0.0000000000
     18286       147  DOPE      C215           -0.8709571123      -28.0844750358       -4.7683375242  MEMB      147             0.0000000000
     18287       147  DOPE      H15R           -0.5745285185      -28.6635101773       -5.6689872916  MEMB      147             0.0000000000
     18288       147  DOPE      H15S           -1.9613141681      -27.8929476404       -4.8619285812  MEMB      147             0.0000000000
     18289       147  DOPE      C216           -0.8168501787      -29.0731299963       -3.6984894867  MEMB      147             0.0000000000
     18290       147  DOPE      H16R            0.1652086774      -29.5816030309       -3.8049609892  MEMB      147             0.0000000000
     18291       147  DOPE      H16S           -1.5893576770      -29.8177583955       -3.9867285453  MEMB      147             0.0000000000
     18292       147  DOPE      C217           -1.1957856143      -28.5789672554       -2.2736560439  MEMB      147             0.0000000000
     18293       147  DOPE      H17R           -2.1462262925      -28.0037960581       -2.2863726582  MEMB      147             0.0000000000
     18294       147  DOPE      H17S           -0.4020062244      -27.9130522311       -1.8726683677  MEMB      147             0.0000000000
     18295       147  DOPE      C218           -1.2840705558      -29.7443829126       -1.2865711240  MEMB      147             0.0000000000
     18296       147  DOPE      H18R           -0.5587217600      -30.5307673802       -1.5862195124  MEMB      147             0.0000000000
     18297       147  DOPE      H18S           -2.2710538550      -30.2536225094       -1.2572479979  MEMB      147             0.0000000000
     18298       147  DOPE      H18T           -1.0683119467      -29.3336464623       -0.2770829735  MEMB      147             0.0000000000
     18299       147  DOPE      C33            -1.1880623881      -31.2265253542      -11.7169480337  MEMB      147             0.0000000000
     18300       147  DOPE      H3X            -1.1253772762      -32.2536649451      -11.2981685683  MEMB      147             0.0000000000
     18301       147  DOPE      H3Y            -1.3971589751      -30.5079109616      -10.8958553678  MEMB      147             0.0000000000
     18302       147  DOPE      C34             0.0594686018      -30.7636916590      -12.3286448665  MEMB      147             0.0000000000
     18303       147  DOPE      H4X             0.2036960465      -31.3702827488      -13.2481919074  MEMB      147             0.0000000000
     18304       147  DOPE      H4Y            -0.0184127517      -29.7563334745      -12.7906891588  MEMB      147             0.0000000000
     18305       147  DOPE      C35             1.2619559143      -30.8601422461      -11.4104815691  MEMB      147             0.0000000000
     18306       147  DOPE      H5X             2.1222531723      -30.8395097059      -12.1131791373  MEMB      147             0.0000000000
     18307       147  DOPE      H5Y             1.3021293904      -31.8015311572      -10.8218444642  MEMB      147             0.0000000000
     18308       147  DOPE      C36             1.5286346058      -29.6531180691      -10.5045895040  MEMB      147             0.0000000000
     18309       147  DOPE      H6X             1.1043290799      -28.7496224286      -10.9924224337  MEMB      147             0.0000000000
     18310       147  DOPE      H6Y             2.6178197588      -29.4486890972      -10.4258134294  MEMB      147             0.0000000000
     18311       147  DOPE      C37             0.9509787881      -29.7489757340       -9.1176575774  MEMB      147             0.0000000000
     18312       147  DOPE      H7X             1.1817984310      -28.7502211508       -8.6892506475  MEMB      147             0.0000000000
     18313       147  DOPE      H7Y            -0.1591529161      -29.7102469450       -9.0969521644  MEMB      147             0.0000000000
     18314       147  DOPE      C38             1.4671685719      -30.8998563329       -8.1892171744  MEMB      147             0.0000000000
     18315       147  DOPE      H8X             0.9606260814      -31.8290021910       -8.5274834235  MEMB      147             0.0000000000
     18316       147  DOPE      H8Y             1.1063876621      -30.7509090269       -7.1490383634  MEMB      147             0.0000000000
     18317       147  DOPE      C39             3.0156020664      -31.2096728249       -8.3262836386  MEMB      147             0.0000000000
     18318       147  DOPE      H9X             3.2162498796      -31.8489295906       -9.1986888507  MEMB      147             0.0000000000
     18319       147  DOPE      C310            3.9398243436      -30.8150381175       -7.4708186302  MEMB      147             0.0000000000
     18320       147  DOPE      H10X            4.9964954889      -31.0495495056       -7.6669078254  MEMB      147             0.0000000000
     18321       147  DOPE      C311            3.6898954470      -29.9896605499       -6.1961173367  MEMB      147             0.0000000000
     18322       147  DOPE      H11X            4.4110690376      -29.1465079265       -6.1384688997  MEMB      147             0.0000000000
     18323       147  DOPE      H11Y            2.6469357073      -29.6102787215       -6.1448782046  MEMB      147             0.0000000000
     18324       147  DOPE      C312            3.8262133364      -30.7593667291       -4.9742087775  MEMB      147             0.0000000000
     18325       147  DOPE      H12X            4.8595539030      -31.1054296267       -4.7579475665  MEMB      147             0.0000000000
     18326       147  DOPE      H12Y            3.1682620867      -31.6510308712       -5.0539339133  MEMB      147             0.0000000000
     18327       147  DOPE      C313            3.3351894006      -30.0547465824       -3.7131557881  MEMB      147             0.0000000000
     18328       147  DOPE      H13X            2.6156717589      -29.3146093502       -4.1240234806  MEMB      147             0.0000000000
     18329       147  DOPE      H13Y            2.8628993889      -30.8674853461       -3.1209403073  MEMB      147             0.0000000000
     18330       147  DOPE      C314            4.2900607027      -29.2168503301       -2.8328929049  MEMB      147             0.0000000000
     18331       147  DOPE      H14X            4.7125574559      -28.4781922490       -3.5471759830  MEMB      147             0.0000000000
     18332       147  DOPE      H14Y            5.0583724336      -29.8027557016       -2.2845000072  MEMB      147             0.0000000000
     18333       147  DOPE      C315            3.5900745470      -28.4925229716       -1.6607759828  MEMB      147             0.0000000000
     18334       147  DOPE      H15X            2.8119049290      -27.8576940942       -2.1359252554  MEMB      147             0.0000000000
     18335       147  DOPE      H15Y            4.2845265336      -27.7299012914       -1.2479021083  MEMB      147             0.0000000000
     18336       147  DOPE      C316            3.1070941581      -29.4053760198       -0.5353808073  MEMB      147             0.0000000000
     18337       147  DOPE      H16X            3.9051210618      -30.0425949895       -0.0978580549  MEMB      147             0.0000000000
     18338       147  DOPE      H16Y            2.3837546314      -30.1574715740       -0.9167655469  MEMB      147             0.0000000000
     18339       147  DOPE      C317            2.4435481103      -28.6409929242        0.6788310424  MEMB      147             0.0000000000
     18340       147  DOPE      H17X            3.2334094637      -27.9125611439        0.9613684603  MEMB      147             0.0000000000
     18341       147  DOPE      H17Y            1.5051939937      -28.3011055880        0.1906828109  MEMB      147             0.0000000000
     18342       147  DOPE      C318            2.2188923659      -29.5450559923        1.8089857100  MEMB      147             0.0000000000
     18343       147  DOPE      H18X            1.8973988744      -28.8883912292        2.6454984492  MEMB      147             0.0000000000
     18344       147  DOPE      H18Y            1.3793958171      -30.2572541058        1.6595189163  MEMB      147             0.0000000000
     18345       147  DOPE      H18Z            3.0920621264      -30.1490493002        2.1362278584  MEMB      147             0.0000000000
     18346       148  CHL1      C3            -12.3206100253       26.8943230444      -17.2892500000  MEMB      148             0.0000000000
     18347       148  CHL1      H3            -13.2964881271       27.3007721402      -16.9475100000  MEMB      148             0.0000000000
     18348       148  CHL1      O3            -12.3547785747       26.9693107556      -18.7107500000  MEMB      148             0.0000000000
     18349       148  CHL1      H3'           -11.6801410357       27.5573411427      -19.0581500000  MEMB      148             0.0000000000
     18350       148  CHL1      C4            -11.1486045066       27.7130138377      -16.7666100000  MEMB      148             0.0000000000
     18351       148  CHL1      H4A           -10.1840618024       27.2762310172      -17.1030700000  MEMB      148             0.0000000000
     18352       148  CHL1      H4B           -11.2344505314       28.7368964213      -17.1892500000  MEMB      148             0.0000000000
     18353       148  CHL1      C5            -11.1906463115       27.7703878426      -15.2203200000  MEMB      148             0.0000000000
     18354       148  CHL1      C6            -11.1294151846       28.9378363955      -14.5572500000  MEMB      148             0.0000000000
     18355       148  CHL1      H6            -11.0270188418       29.8430436694      -15.1737900000  MEMB      148             0.0000000000
     18356       148  CHL1      C7            -11.1352489121       29.0401040840      -13.0964700000  MEMB      148             0.0000000000
     18357       148  CHL1      H7A           -10.3487892886       29.7291948463      -12.7210100000  MEMB      148             0.0000000000
     18358       148  CHL1      H7B           -12.1044210343       29.5113458641      -12.8263900000  MEMB      148             0.0000000000
     18359       148  CHL1      C8            -11.0634203733       27.6310488486      -12.3935700000  MEMB      148             0.0000000000
     18360       148  CHL1      H8             -9.9761709158       27.5013657436      -12.2054500000  MEMB      148             0.0000000000
     18361       148  CHL1      C14           -11.7225771749       27.7966690445      -11.0776100000  MEMB      148             0.0000000000
     18362       148  CHL1      H14           -12.8146152461       27.8343199221      -11.2785200000  MEMB      148             0.0000000000
     18363       148  CHL1      C15           -11.5090157693       29.1224512360      -10.3170400000  MEMB      148             0.0000000000
     18364       148  CHL1      H15A          -10.4126624808       29.2969948922      -10.2738500000  MEMB      148             0.0000000000
     18365       148  CHL1      H15B          -12.0505981496       29.9914627997      -10.7481200000  MEMB      148             0.0000000000
     18366       148  CHL1      C16           -11.8758302727       28.8055527011       -8.9346100000  MEMB      148             0.0000000000
     18367       148  CHL1      H16A          -10.9954526768       28.9771955482       -8.2790300000  MEMB      148             0.0000000000
     18368       148  CHL1      H16B          -12.7531583412       29.2479190538       -8.4160200000  MEMB      148             0.0000000000
     18369       148  CHL1      C17           -12.1784471758       27.2767752704       -8.8241600000  MEMB      148             0.0000000000
     18370       148  CHL1      H17           -13.2564234907       27.1736695371       -9.0724700000  MEMB      148             0.0000000000
     18371       148  CHL1      C13           -11.4471547475       26.7250193168       -9.9911100000  MEMB      148             0.0000000000
     18372       148  CHL1      C18            -9.9651072466       26.6726779893       -9.6740100000  MEMB      148             0.0000000000
     18373       148  CHL1      H18A           -9.6872691242       25.9654106646       -8.8635200000  MEMB      148             0.0000000000
     18374       148  CHL1      H18B           -9.3957747271       26.3937170888      -10.5863500000  MEMB      148             0.0000000000
     18375       148  CHL1      H18C           -9.5310998070       27.6243194044       -9.2994000000  MEMB      148             0.0000000000
     18376       148  CHL1      C12           -11.9679445134       25.4282483144      -10.7231100000  MEMB      148             0.0000000000
     18377       148  CHL1      H12A          -11.7946414218       24.5930396147      -10.0112700000  MEMB      148             0.0000000000
     18378       148  CHL1      H12B          -13.0739014913       25.4841306933      -10.8129300000  MEMB      148             0.0000000000
     18379       148  CHL1      C11           -11.3202184661       25.3100340555      -12.1103200000  MEMB      148             0.0000000000
     18380       148  CHL1      H11A          -10.2168104339       25.1805676574      -12.1033000000  MEMB      148             0.0000000000
     18381       148  CHL1      H11B          -11.8177980756       24.4322562506      -12.5753400000  MEMB      148             0.0000000000
     18382       148  CHL1      C9            -11.6924309718       26.4934582832      -13.0308600000  MEMB      148             0.0000000000
     18383       148  CHL1      H9            -12.7712809441       26.7587885638      -13.0282600000  MEMB      148             0.0000000000
     18384       148  CHL1      C10           -11.2553084062       26.4227575003      -14.5673700000  MEMB      148             0.0000000000
     18385       148  CHL1      C19            -9.8168906878       25.8489595278      -14.6817700000  MEMB      148             0.0000000000
     18386       148  CHL1      H19A           -9.6343688003       24.8770464061      -14.1754200000  MEMB      148             0.0000000000
     18387       148  CHL1      H19B           -9.4967848986       25.6609645539      -15.7289200000  MEMB      148             0.0000000000
     18388       148  CHL1      H19C           -9.0724253639       26.4762942273      -14.1464800000  MEMB      148             0.0000000000
     18389       148  CHL1      C1            -12.2551183727       25.4691199710      -15.2938400000  MEMB      148             0.0000000000
     18390       148  CHL1      H1A           -12.1328996496       24.4180104575      -14.9553800000  MEMB      148             0.0000000000
     18391       148  CHL1      H1B           -13.2852844254       25.7348514656      -14.9737400000  MEMB      148             0.0000000000
     18392       148  CHL1      C2            -12.2072447505       25.4570631186      -16.8314300000  MEMB      148             0.0000000000
     18393       148  CHL1      H2A           -13.0877414833       24.9097502504      -17.2307900000  MEMB      148             0.0000000000
     18394       148  CHL1      H2B           -11.2417031719       25.0008998117      -17.1379800000  MEMB      148             0.0000000000
     18395       148  CHL1      C20           -12.0786332377       26.6191602032       -7.3875700000  MEMB      148             0.0000000000
     18396       148  CHL1      H20           -10.9906008307       26.5230936936       -7.1844000000  MEMB      148             0.0000000000
     18397       148  CHL1      C21           -12.7080067201       25.1935128685       -7.3884000000  MEMB      148             0.0000000000
     18398       148  CHL1      H21A          -12.7833480297       24.8209885784       -6.3444300000  MEMB      148             0.0000000000
     18399       148  CHL1      H21B          -12.1899770838       24.5038475095       -8.0886400000  MEMB      148             0.0000000000
     18400       148  CHL1      H21C          -13.7521520136       25.2189240465       -7.7671200000  MEMB      148             0.0000000000
     18401       148  CHL1      C22           -12.6403746333       27.4497814751       -6.2799600000  MEMB      148             0.0000000000
     18402       148  CHL1      H22A          -12.5961529853       28.5399899625       -6.4892700000  MEMB      148             0.0000000000
     18403       148  CHL1      H22B          -13.7038132541       27.2297440441       -6.0454200000  MEMB      148             0.0000000000
     18404       148  CHL1      C23           -11.7721070125       27.3692854252       -4.9755200000  MEMB      148             0.0000000000
     18405       148  CHL1      H23A          -11.6159743153       26.2848969429       -4.7909900000  MEMB      148             0.0000000000
     18406       148  CHL1      H23B          -10.8008419382       27.8968895089       -5.0877700000  MEMB      148             0.0000000000
     18407       148  CHL1      C24           -12.6581098042       27.8192604951       -3.7200000000  MEMB      148             0.0000000000
     18408       148  CHL1      H24A          -13.0870105393       28.8286284600       -3.8976000000  MEMB      148             0.0000000000
     18409       148  CHL1      H24B          -13.4204941516       27.0120676385       -3.6810300000  MEMB      148             0.0000000000
     18410       148  CHL1      C25           -12.0155356690       27.7941902397       -2.3759500000  MEMB      148             0.0000000000
     18411       148  CHL1      H25           -11.1581832438       28.5006314596       -2.3902900000  MEMB      148             0.0000000000
     18412       148  CHL1      C26           -12.9279652904       28.0744310713       -1.1311500000  MEMB      148             0.0000000000
     18413       148  CHL1      H26A          -13.6425434147       27.2440786933       -0.9461800000  MEMB      148             0.0000000000
     18414       148  CHL1      H26B          -12.2756621721       27.9969518025       -0.2351500000  MEMB      148             0.0000000000
     18415       148  CHL1      H26C          -13.3742586356       29.0909713519       -1.1732500000  MEMB      148             0.0000000000
     18416       148  CHL1      C27           -11.3780018125       26.3863049525       -2.0491300000  MEMB      148             0.0000000000
     18417       148  CHL1      H27A          -11.0637623621       26.2494987954       -0.9923200000  MEMB      148             0.0000000000
     18418       148  CHL1      H27B          -12.1456441005       25.6273386245       -2.3118600000  MEMB      148             0.0000000000
     18419       148  CHL1      H27C          -10.5583151069       26.1485677744       -2.7604000000  MEMB      148             0.0000000000
     18420       149  DOPE      N               4.6852207286       28.0970016006      -17.8095054447  MEMB      149             0.0000000000
     18421       149  DOPE      HN1             4.1241169357       28.9374606916      -18.0552513142  MEMB      149             0.0000000000
     18422       149  DOPE      HN2             4.0734952544       27.2965318275      -17.5513577464  MEMB      149             0.0000000000
     18423       149  DOPE      HN3             5.2248812065       28.2778439240      -16.9390672873  MEMB      149             0.0000000000
     18424       149  DOPE      C12             5.3968005988       27.6825292841      -19.0589172257  MEMB      149             0.0000000000
     18425       149  DOPE      H12A            5.1676458041       28.5115744004      -19.7621194532  MEMB      149             0.0000000000
     18426       149  DOPE      H12B            4.8907748960       26.8088931862      -19.5226185830  MEMB      149             0.0000000000
     18427       149  DOPE      C11             6.9075341750       27.5065854282      -18.7283363067  MEMB      149             0.0000000000
     18428       149  DOPE      H11A            7.3354327678       27.0913592145      -19.6657854665  MEMB      149             0.0000000000
     18429       149  DOPE      H11B            6.9524833889       26.6521714878      -18.0196211530  MEMB      149             0.0000000000
     18430       149  DOPE      P               7.6747425392       29.8761844618      -19.3528791468  MEMB      149             0.0000000000
     18431       149  DOPE      O13             6.8892101497       31.0497152845      -18.8534762216  MEMB      149             0.0000000000
     18432       149  DOPE      O14             7.3300238263       29.3814013732      -20.7147855145  MEMB      149             0.0000000000
     18433       149  DOPE      O11             9.2552713435       30.1404959729      -19.2424643752  MEMB      149             0.0000000000
     18434       149  DOPE      O12             7.4484687813       28.6924433611      -18.2396357647  MEMB      149             0.0000000000
     18435       149  DOPE      C1             10.1987686873       29.0374104235      -19.4214168856  MEMB      149             0.0000000000
     18436       149  DOPE      HA             11.1091706594       29.3948442225      -19.9484181046  MEMB      149             0.0000000000
     18437       149  DOPE      HB              9.7546474269       28.3022225448      -20.1260984657  MEMB      149             0.0000000000
     18438       149  DOPE      C2             10.6576031059       28.4165327101      -18.0570476392  MEMB      149             0.0000000000
     18439       149  DOPE      HS              9.7745686641       28.2969892979      -17.3935112468  MEMB      149             0.0000000000
     18440       149  DOPE      O21            11.6202462761       29.2361663325      -17.4162062597  MEMB      149             0.0000000000
     18441       149  DOPE      C21            11.2143252296       30.2299823497      -16.6612538064  MEMB      149             0.0000000000
     18442       149  DOPE      O22            10.0320482483       30.5674193020      -16.5100697912  MEMB      149             0.0000000000
     18443       149  DOPE      C22            12.4536359504       31.0321885570      -16.1466632788  MEMB      149             0.0000000000
     18444       149  DOPE      H2R            12.1908307282       32.0437987592      -15.7699686353  MEMB      149             0.0000000000
     18445       149  DOPE      H2S            13.1612927054       31.1130399811      -16.9993099740  MEMB      149             0.0000000000
     18446       149  DOPE      C3             11.2492444581       26.9620444643      -18.2994873655  MEMB      149             0.0000000000
     18447       149  DOPE      HX             12.1715971134       27.0540545661      -18.9119587842  MEMB      149             0.0000000000
     18448       149  DOPE      HY             10.4716397341       26.3275985771      -18.7760690595  MEMB      149             0.0000000000
     18449       149  DOPE      O31            11.7951918148       26.4219986129      -17.1182561018  MEMB      149             0.0000000000
     18450       149  DOPE      C31            10.9435337299       25.8063502591      -16.2528003307  MEMB      149             0.0000000000
     18451       149  DOPE      O32             9.7419981201       25.7044602883      -16.3861326765  MEMB      149             0.0000000000
     18452       149  DOPE      C32            11.7755557827       25.3867930884      -15.1008644890  MEMB      149             0.0000000000
     18453       149  DOPE      H2X            12.4004044266       24.5531039812      -15.4866733860  MEMB      149             0.0000000000
     18454       149  DOPE      H2Y            12.5031242746       26.1404091795      -14.7306916201  MEMB      149             0.0000000000
     18455       149  DOPE      C23            13.0580152580       30.2161986712      -14.9607659444  MEMB      149             0.0000000000
     18456       149  DOPE      H3R            13.8940304905       30.8848718201      -14.6636535369  MEMB      149             0.0000000000
     18457       149  DOPE      H3S            13.4216365477       29.2355673181      -15.3355494324  MEMB      149             0.0000000000
     18458       149  DOPE      C24            11.9821555886       29.8576206534      -13.8658769941  MEMB      149             0.0000000000
     18459       149  DOPE      H4R            11.0668455836       29.3251486686      -14.2020344534  MEMB      149             0.0000000000
     18460       149  DOPE      H4S            11.7113345558       30.8617989072      -13.4752326499  MEMB      149             0.0000000000
     18461       149  DOPE      C25            12.6552155256       29.2015794660      -12.6502348483  MEMB      149             0.0000000000
     18462       149  DOPE      H5R            13.2865433091       28.3756529730      -13.0421422262  MEMB      149             0.0000000000
     18463       149  DOPE      H5S            11.8718263614       28.8183622572      -11.9619276009  MEMB      149             0.0000000000
     18464       149  DOPE      C26            13.5868256232       30.0523153987      -11.8188534815  MEMB      149             0.0000000000
     18465       149  DOPE      H6R            13.7433542960       31.0012884087      -12.3749737705  MEMB      149             0.0000000000
     18466       149  DOPE      H6S            14.5352535755       29.4854297348      -11.7028979043  MEMB      149             0.0000000000
     18467       149  DOPE      C27            12.9771860560       30.4415086991      -10.4231764878  MEMB      149             0.0000000000
     18468       149  DOPE      H7R            11.9390112497       30.8338274289      -10.4741665306  MEMB      149             0.0000000000
     18469       149  DOPE      H7S            13.5041123213       31.3501451471      -10.0611689453  MEMB      149             0.0000000000
     18470       149  DOPE      C28            12.8331992038       29.3751123308       -9.2691621793  MEMB      149             0.0000000000
     18471       149  DOPE      H8R            13.8364086577       28.9425859338       -9.0671398943  MEMB      149             0.0000000000
     18472       149  DOPE      H8S            12.1428123779       28.5294024630       -9.4752251935  MEMB      149             0.0000000000
     18473       149  DOPE      C29            12.1985571171       30.0056070593       -8.0164690807  MEMB      149             0.0000000000
     18474       149  DOPE      H9R            11.1830826052       30.4283597220       -8.0260607014  MEMB      149             0.0000000000
     18475       149  DOPE      C210           12.8492940684       30.2105663070       -6.8589598064  MEMB      149             0.0000000000
     18476       149  DOPE      H10R           12.4781157651       30.9243292836       -6.1087802628  MEMB      149             0.0000000000
     18477       149  DOPE      C211           14.2499507762       29.9348917152       -6.4296105767  MEMB      149             0.0000000000
     18478       149  DOPE      H11R           14.7962100527       29.9404085977       -7.3970254309  MEMB      149             0.0000000000
     18479       149  DOPE      H11S           14.3325379387       28.9008819721       -6.0317100029  MEMB      149             0.0000000000
     18480       149  DOPE      C212           14.9151869943       31.0122748325       -5.5331868843  MEMB      149             0.0000000000
     18481       149  DOPE      H12R           14.5511904046       32.0461140838       -5.7148568446  MEMB      149             0.0000000000
     18482       149  DOPE      H12S           16.0204497327       30.9294722421       -5.6097277441  MEMB      149             0.0000000000
     18483       149  DOPE      C213           14.7707499350       30.6626881064       -4.0740252578  MEMB      149             0.0000000000
     18484       149  DOPE      H13R           15.2912989260       31.3488971446       -3.3722638244  MEMB      149             0.0000000000
     18485       149  DOPE      H13S           14.9702525122       29.6185151760       -3.7511896319  MEMB      149             0.0000000000
     18486       149  DOPE      C214           13.3825921318       30.7933633874       -3.5064261079  MEMB      149             0.0000000000
     18487       149  DOPE      H14R           12.8627574783       29.9527835750       -4.0138889161  MEMB      149             0.0000000000
     18488       149  DOPE      H14S           12.8866621030       31.7433571965       -3.7994908310  MEMB      149             0.0000000000
     18489       149  DOPE      C215           13.2683402010       30.3675706271       -2.0234115934  MEMB      149             0.0000000000
     18490       149  DOPE      H15R           13.6341368077       29.3291541062       -1.8743949296  MEMB      149             0.0000000000
     18491       149  DOPE      H15S           12.1622203123       30.3933405161       -1.9226380458  MEMB      149             0.0000000000
     18492       149  DOPE      C216           14.0248617400       31.2196177447       -0.9849769397  MEMB      149             0.0000000000
     18493       149  DOPE      H16R           13.5883769806       32.2407710006       -0.9526041359  MEMB      149             0.0000000000
     18494       149  DOPE      H16S           15.1174016882       31.2131077625       -1.1865590510  MEMB      149             0.0000000000
     18495       149  DOPE      C217           13.8581569827       30.5898295865        0.4040854468  MEMB      149             0.0000000000
     18496       149  DOPE      H17R           13.9082417211       29.4918550052        0.2420221795  MEMB      149             0.0000000000
     18497       149  DOPE      H17S           12.8126947975       30.8294646227        0.6937492024  MEMB      149             0.0000000000
     18498       149  DOPE      C218           14.9550174569       30.8869237620        1.4414831670  MEMB      149             0.0000000000
     18499       149  DOPE      H18R           14.5531840015       30.7146987043        2.4628505033  MEMB      149             0.0000000000
     18500       149  DOPE      H18S           15.2148555314       31.9638168522        1.3571834519  MEMB      149             0.0000000000
     18501       149  DOPE      H18T           15.8523316330       30.2740962325        1.2099866967  MEMB      149             0.0000000000
     18502       149  DOPE      C33            10.8849259799       24.9394433935      -13.8958473009  MEMB      149             0.0000000000
     18503       149  DOPE      H3X            11.4727960941       24.1652132739      -13.3579831347  MEMB      149             0.0000000000
     18504       149  DOPE      H3Y             9.9053566652       24.4531970616      -14.0916260153  MEMB      149             0.0000000000
     18505       149  DOPE      C34            10.6016376603       26.2006728953      -12.9984558469  MEMB      149             0.0000000000
     18506       149  DOPE      H4X            11.4893779357       26.5132784918      -12.4081039062  MEMB      149             0.0000000000
     18507       149  DOPE      H4Y            10.3581616893       27.0777296410      -13.6354895136  MEMB      149             0.0000000000
     18508       149  DOPE      C35             9.3787826757       25.8818824606      -12.0098238428  MEMB      149             0.0000000000
     18509       149  DOPE      H5X             9.7121244709       25.1173825857      -11.2758322567  MEMB      149             0.0000000000
     18510       149  DOPE      H5Y             8.5690807848       25.4701801712      -12.6495151611  MEMB      149             0.0000000000
     18511       149  DOPE      C36             8.7743529652       27.1175121432      -11.2267193091  MEMB      149             0.0000000000
     18512       149  DOPE      H6X             9.5090191273       27.4914530760      -10.4818997074  MEMB      149             0.0000000000
     18513       149  DOPE      H6Y             7.8350878323       26.8015112387      -10.7244785227  MEMB      149             0.0000000000
     18514       149  DOPE      C37             8.4429537851       28.3294342789      -12.1132026123  MEMB      149             0.0000000000
     18515       149  DOPE      H7X             9.3973430222       28.6310124858      -12.5953984581  MEMB      149             0.0000000000
     18516       149  DOPE      H7Y             7.7830624526       27.9510557595      -12.9229523069  MEMB      149             0.0000000000
     18517       149  DOPE      C38             7.9380723257       29.6041384877      -11.3759060644  MEMB      149             0.0000000000
     18518       149  DOPE      H8X             7.7394345483       30.2332659134      -12.2698092793  MEMB      149             0.0000000000
     18519       149  DOPE      H8Y             8.8116168475       29.9386984511      -10.7764802612  MEMB      149             0.0000000000
     18520       149  DOPE      C39             6.6842548359       29.3321349394      -10.5564319345  MEMB      149             0.0000000000
     18521       149  DOPE      H9X             5.7821262254       29.0966552648      -11.1401376381  MEMB      149             0.0000000000
     18522       149  DOPE      C310            6.6119694021       29.0737595714       -9.2513509962  MEMB      149             0.0000000000
     18523       149  DOPE      H10X            5.6348516439       28.9422911270       -8.7635427172  MEMB      149             0.0000000000
     18524       149  DOPE      C311            7.9090567250       29.0018077931       -8.3962056246  MEMB      149             0.0000000000
     18525       149  DOPE      H11X            8.8408071614       28.8127681282       -8.9710328827  MEMB      149             0.0000000000
     18526       149  DOPE      H11Y            8.0824941044       30.0026811467       -7.9462134321  MEMB      149             0.0000000000
     18527       149  DOPE      C312            7.7215401365       27.8623174698       -7.3742992882  MEMB      149             0.0000000000
     18528       149  DOPE      H12X            7.4904470169       26.9737082236       -7.9998313606  MEMB      149             0.0000000000
     18529       149  DOPE      H12Y            6.8489943061       28.1542085756       -6.7515756322  MEMB      149             0.0000000000
     18530       149  DOPE      C313            8.9022635944       27.6253846028       -6.4882270128  MEMB      149             0.0000000000
     18531       149  DOPE      H13X            9.4479687429       28.5441079357       -6.1841310199  MEMB      149             0.0000000000
     18532       149  DOPE      H13Y            8.5223414201       27.3103190970       -5.4928802281  MEMB      149             0.0000000000
     18533       149  DOPE      C314            9.9549083766       26.7999849222       -7.2140478321  MEMB      149             0.0000000000
     18534       149  DOPE      H14X           10.2994890336       27.4805225457       -8.0217941464  MEMB      149             0.0000000000
     18535       149  DOPE      H14Y            9.3996865819       25.9489995394       -7.6633514806  MEMB      149             0.0000000000
     18536       149  DOPE      C315           11.1289622498       26.2915224459       -6.3223921697  MEMB      149             0.0000000000
     18537       149  DOPE      H15X           11.5627781241       27.2612758467       -5.9972721391  MEMB      149             0.0000000000
     18538       149  DOPE      H15Y           11.9828059349       25.7685916040       -6.8038645143  MEMB      149             0.0000000000
     18539       149  DOPE      C316           10.7470475536       25.4351048411       -5.0629925531  MEMB      149             0.0000000000
     18540       149  DOPE      H16X           10.3220784379       24.4153625014       -5.1806713177  MEMB      149             0.0000000000
     18541       149  DOPE      H16Y           10.0326568032       25.9995063999       -4.4262683091  MEMB      149             0.0000000000
     18542       149  DOPE      C317           12.0493862835       25.0830883151       -4.2527729908  MEMB      149             0.0000000000
     18543       149  DOPE      H17X           11.8877030003       24.5754156825       -3.2778640351  MEMB      149             0.0000000000
     18544       149  DOPE      H17Y           12.6444716427       24.4417568798       -4.9375271654  MEMB      149             0.0000000000
     18545       149  DOPE      C318           12.8583971494       26.4198510353       -3.8701141446  MEMB      149             0.0000000000
     18546       149  DOPE      H18X           12.3626301205       27.1676163143       -3.2148417886  MEMB      149             0.0000000000
     18547       149  DOPE      H18Y           13.7843749877       26.1314634998       -3.3281562730  MEMB      149             0.0000000000
     18548       149  DOPE      H18Z           13.0792118152       27.0197577178       -4.7787811716  MEMB      149             0.0000000000
     18549       150  23SM      N              29.8536447184       -0.7729474908      -27.5507537768  MEMB      150             0.0000000000
     18550       150  23SM      C15            29.0293674542       -1.4771387330      -26.5431944068  MEMB      150             0.0000000000
     18551       150  23SM      H15A           29.3420589340       -2.5014118296      -26.4035928181  MEMB      150             0.0000000000
     18552       150  23SM      H15B           28.0184547136       -1.6466944872      -26.8833512421  MEMB      150             0.0000000000
     18553       150  23SM      H15C           29.0261462133       -0.9668666192      -25.5913477612  MEMB      150             0.0000000000
     18554       150  23SM      C14            29.7549438575       -1.5844321080      -28.8401911189  MEMB      150             0.0000000000
     18555       150  23SM      H14A           30.1656537788       -2.5720567936      -28.6908104781  MEMB      150             0.0000000000
     18556       150  23SM      H14B           30.3710372353       -1.2127216119      -29.6455855091  MEMB      150             0.0000000000
     18557       150  23SM      H14C           28.7058884599       -1.6812453802      -29.0779098345  MEMB      150             0.0000000000
     18558       150  23SM      C13            29.2405164364        0.5844331290      -27.8811593561  MEMB      150             0.0000000000
     18559       150  23SM      H13A           28.9319857089        0.9680013630      -26.9198663424  MEMB      150             0.0000000000
     18560       150  23SM      H13B           28.4246978440        0.5366755532      -28.5872465628  MEMB      150             0.0000000000
     18561       150  23SM      H13C           29.9925200048        1.1825515268      -28.3742567311  MEMB      150             0.0000000000
     18562       150  23SM      C12            31.3108347619       -0.6717180213      -27.1479232696  MEMB      150             0.0000000000
     18563       150  23SM      H12A           31.7039266712        0.0118956623      -27.8858603649  MEMB      150             0.0000000000
     18564       150  23SM      H12B           31.8047600416       -1.6320698010      -27.1351904544  MEMB      150             0.0000000000
     18565       150  23SM      C11            31.5426117385       -0.0079904694      -25.7453653653  MEMB      150             0.0000000000
     18566       150  23SM      H11A           32.6477369384        0.1024023622      -25.7742213347  MEMB      150             0.0000000000
     18567       150  23SM      H11B           31.2160928653       -0.6057490190      -24.8676460703  MEMB      150             0.0000000000
     18568       150  23SM      P              30.3938586571        2.0571095746      -24.4562500335  MEMB      150             0.0000000000
     18569       150  23SM      O13            30.6899927579        3.4983947822      -24.5262868938  MEMB      150             0.0000000000
     18570       150  23SM      O14            29.0567701356        1.5378027488      -24.1930782257  MEMB      150             0.0000000000
     18571       150  23SM      O11            31.3223055309        1.4058805584      -23.3486190675  MEMB      150             0.0000000000
     18572       150  23SM      O12            30.9876244523        1.3026743821      -25.7671784882  MEMB      150             0.0000000000
     18573       150  23SM      C1S            31.6575080582        2.1047656433      -22.1727537002  MEMB      150             0.0000000000
     18574       150  23SM      H1S            30.7771989888        2.6748104005      -21.8061121530  MEMB      150             0.0000000000
     18575       150  23SM      H1T            32.5379717012        2.6934067220      -22.5083226503  MEMB      150             0.0000000000
     18576       150  23SM      NF             31.2642796923        0.0223344138      -20.8196436829  MEMB      150             0.0000000000
     18577       150  23SM      HNF            30.7030545707        0.0977427126      -19.9990654445  MEMB      150             0.0000000000
     18578       150  23SM      C2S            32.1268897354        1.1543938107      -21.0471111519  MEMB      150             0.0000000000
     18579       150  23SM      H2S            33.0866247323        0.6780831191      -21.3409784493  MEMB      150             0.0000000000
     18580       150  23SM      C3S            32.3669415531        1.8985516746      -19.6507418008  MEMB      150             0.0000000000
     18581       150  23SM      H3S            31.4487771460        2.4362321660      -19.3310626332  MEMB      150             0.0000000000
     18582       150  23SM      O3             33.4006784563        2.8508718285      -19.7395176417  MEMB      150             0.0000000000
     18583       150  23SM      HO3            33.5557758309        2.9239515723      -20.6840830020  MEMB      150             0.0000000000
     18584       150  23SM      C4S            32.7768239357        0.9411081092      -18.5506573796  MEMB      150             0.0000000000
     18585       150  23SM      H4S            33.5370094115        0.1901791873      -18.8118538816  MEMB      150             0.0000000000
     18586       150  23SM      C5S            32.2406303309        0.9851919874      -17.2504465725  MEMB      150             0.0000000000
     18587       150  23SM      H5S            31.4408866991        1.7365800968      -17.1741184516  MEMB      150             0.0000000000
     18588       150  23SM      C6S            32.5789236068        0.1056082368      -16.0079811263  MEMB      150             0.0000000000
     18589       150  23SM      H6S            33.5802764114       -0.3742267937      -16.0450179637  MEMB      150             0.0000000000
     18590       150  23SM      H6T            31.9449561843       -0.8045276533      -15.9442712091  MEMB      150             0.0000000000
     18591       150  23SM      C7S            32.4489800729        0.7971852583      -14.6177600378  MEMB      150             0.0000000000
     18592       150  23SM      H7S            31.4093058672        1.1576312852      -14.4645376100  MEMB      150             0.0000000000
     18593       150  23SM      H7T            32.9238439560        1.7908036874      -14.7645519035  MEMB      150             0.0000000000
     18594       150  23SM      C8S            32.7316409260       -0.0869847001      -13.4392621749  MEMB      150             0.0000000000
     18595       150  23SM      H8S            33.7978993351       -0.3910176622      -13.3687080854  MEMB      150             0.0000000000
     18596       150  23SM      H8T            32.2222828580       -1.0526248790      -13.6452101041  MEMB      150             0.0000000000
     18597       150  23SM      C9S            32.3639989145        0.3829172315      -12.0076315860  MEMB      150             0.0000000000
     18598       150  23SM      H9S            32.6294714752       -0.5414625342      -11.4514232751  MEMB      150             0.0000000000
     18599       150  23SM      H9T            31.2635819581        0.5285286997      -11.9607182302  MEMB      150             0.0000000000
     18600       150  23SM      C10S           32.9842221966        1.7172455992      -11.4959755649  MEMB      150             0.0000000000
     18601       150  23SM      H10S           32.6454581404        2.5606880283      -12.1348526828  MEMB      150             0.0000000000
     18602       150  23SM      H10T           34.0752045812        1.7730695178      -11.6983657803  MEMB      150             0.0000000000
     18603       150  23SM      C11S           32.7706885418        2.1281077171      -10.0109390887  MEMB      150             0.0000000000
     18604       150  23SM      H11S           33.1615767085        1.3698099584       -9.2992426467  MEMB      150             0.0000000000
     18605       150  23SM      H11T           31.6740521027        2.2204910821       -9.8587062293  MEMB      150             0.0000000000
     18606       150  23SM      C12S           33.5790759371        3.4312247612       -9.6750481006  MEMB      150             0.0000000000
     18607       150  23SM      H12S           33.4389149379        4.2111316476      -10.4537776320  MEMB      150             0.0000000000
     18608       150  23SM      H12T           34.6103633263        3.0318767994       -9.5687994410  MEMB      150             0.0000000000
     18609       150  23SM      C13S           32.9713097902        3.9865167826       -8.3196225613  MEMB      150             0.0000000000
     18610       150  23SM      H13S           32.4193939877        3.1193941838       -7.8979495224  MEMB      150             0.0000000000
     18611       150  23SM      H13T           32.2017252400        4.7276464844       -8.6242328250  MEMB      150             0.0000000000
     18612       150  23SM      C14S           34.1044824579        4.5228176238       -7.3400467287  MEMB      150             0.0000000000
     18613       150  23SM      H14S           34.5961531971        5.3409266428       -7.9086228420  MEMB      150             0.0000000000
     18614       150  23SM      H14T           34.9005912827        3.7556648823       -7.2304640248  MEMB      150             0.0000000000
     18615       150  23SM      C15S           33.5774463234        4.9645987486       -5.9905422540  MEMB      150             0.0000000000
     18616       150  23SM      H15S           32.5944216551        5.4535064610       -6.1606979943  MEMB      150             0.0000000000
     18617       150  23SM      H15T           34.2804042007        5.6724744168       -5.5015811842  MEMB      150             0.0000000000
     18618       150  23SM      C16S           33.3242248507        3.8253448106       -5.0120763478  MEMB      150             0.0000000000
     18619       150  23SM      H16S           34.2566826515        3.2302869058       -4.9083958022  MEMB      150             0.0000000000
     18620       150  23SM      H16T           32.6424123547        3.1029699821       -5.5096965417  MEMB      150             0.0000000000
     18621       150  23SM      C17S           32.7016982835        4.3846279418       -3.8158125994  MEMB      150             0.0000000000
     18622       150  23SM      H17S           31.7297402890        4.8729554466       -4.0419882949  MEMB      150             0.0000000000
     18623       150  23SM      H17T           33.3428756800        5.0974038620       -3.2544204821  MEMB      150             0.0000000000
     18624       150  23SM      C18S           32.2161510698        3.2887633754       -2.9479942101  MEMB      150             0.0000000000
     18625       150  23SM      H18S           31.3626444592        2.6523656828       -3.2655573312  MEMB      150             0.0000000000
     18626       150  23SM      H18T           31.8748172280        3.6601315170       -1.9580978753  MEMB      150             0.0000000000
     18627       150  23SM      H18U           33.0519923282        2.5947409411       -2.7155657997  MEMB      150             0.0000000000
     18628       150  23SM      C1F            31.0319949049       -1.0896164283      -21.5742195540  MEMB      150             0.0000000000
     18629       150  23SM      OF             31.8526276264       -1.4392092295      -22.3822280188  MEMB      150             0.0000000000
     18630       150  23SM      C2F            29.9651719610       -2.0680909603      -21.1243503133  MEMB      150             0.0000000000
     18631       150  23SM      H2F            30.4335339027       -3.0689979242      -21.0097055429  MEMB      150             0.0000000000
     18632       150  23SM      H2G            29.1336228532       -2.1095529055      -21.8599639981  MEMB      150             0.0000000000
     18633       150  23SM      C3F            29.4334229571       -1.7765212205      -19.7129960024  MEMB      150             0.0000000000
     18634       150  23SM      H3F            29.1116176546       -0.7278487158      -19.5367903914  MEMB      150             0.0000000000
     18635       150  23SM      H3G            30.3058900028       -1.9718378265      -19.0534704961  MEMB      150             0.0000000000
     18636       150  23SM      C4F            28.3096643212       -2.7324848256      -19.3199268926  MEMB      150             0.0000000000
     18637       150  23SM      H4F            28.7216597910       -3.7260817564      -19.0418154122  MEMB      150             0.0000000000
     18638       150  23SM      H4G            27.5950156654       -2.9732690897      -20.1357823126  MEMB      150             0.0000000000
     18639       150  23SM      C5F            27.3820727650       -2.1907504486      -18.1879012215  MEMB      150             0.0000000000
     18640       150  23SM      H5F            26.4302164500       -2.6486199637      -18.5323522122  MEMB      150             0.0000000000
     18641       150  23SM      H5G            27.2886772375       -1.0851964668      -18.2457675161  MEMB      150             0.0000000000
     18642       150  23SM      C6F            27.7553440431       -2.6638511856      -16.8386759736  MEMB      150             0.0000000000
     18643       150  23SM      H6F            28.2929870899       -3.6301480706      -16.9460593190  MEMB      150             0.0000000000
     18644       150  23SM      H6G            26.8107693306       -2.7333400322      -16.2579258057  MEMB      150             0.0000000000
     18645       150  23SM      C7F            28.6491329025       -1.6579305374      -16.0741626338  MEMB      150             0.0000000000
     18646       150  23SM      H7F            29.3512645406       -1.2283475612      -16.8203472132  MEMB      150             0.0000000000
     18647       150  23SM      H7G            29.2301261679       -2.1573498888      -15.2695835642  MEMB      150             0.0000000000
     18648       150  23SM      C8F            27.7785394318       -0.5086081352      -15.4664642881  MEMB      150             0.0000000000
     18649       150  23SM      H8F            27.0064286024       -0.9313469662      -14.7886312185  MEMB      150             0.0000000000
     18650       150  23SM      H8G            27.1691889750       -0.0839773996      -16.2927217884  MEMB      150             0.0000000000
     18651       150  23SM      C9F            28.6437889158        0.5652329229      -14.6996637500  MEMB      150             0.0000000000
     18652       150  23SM      H9F            29.1651848699        1.1116275392      -15.5144765879  MEMB      150             0.0000000000
     18653       150  23SM      H9G            29.2565851910       -0.0096689274      -13.9728287063  MEMB      150             0.0000000000
     18654       150  23SM      C10F           27.6909549497        1.6370487287      -14.1157527322  MEMB      150             0.0000000000
     18655       150  23SM      H10F           26.9422710620        1.8906295510      -14.8964508537  MEMB      150             0.0000000000
     18656       150  23SM      H10G           28.2150138535        2.5920314841      -13.8973697681  MEMB      150             0.0000000000
     18657       150  23SM      C11F           26.9205829967        1.3849176715      -12.8066853279  MEMB      150             0.0000000000
     18658       150  23SM      H11F           26.1811347921        0.5583802419      -12.8728214499  MEMB      150             0.0000000000
     18659       150  23SM      H11G           26.4458539006        2.3434800407      -12.5064999045  MEMB      150             0.0000000000
     18660       150  23SM      C12F           27.9339597855        0.9778488593      -11.7045284972  MEMB      150             0.0000000000
     18661       150  23SM      H12F           28.7399320073        1.7367866825      -11.6110245419  MEMB      150             0.0000000000
     18662       150  23SM      H12G           28.3665146936        0.0564573337      -12.1497861933  MEMB      150             0.0000000000
     18663       150  23SM      C13F           27.2604023930        0.7607579938      -10.3580268645  MEMB      150             0.0000000000
     18664       150  23SM      H13F           27.7881510051       -0.0465954161       -9.8066808329  MEMB      150             0.0000000000
     18665       150  23SM      H13G           26.2109073066        0.4201581743      -10.4879231134  MEMB      150             0.0000000000
     18666       150  23SM      C14F           27.3865027585        1.9719533593       -9.3864054641  MEMB      150             0.0000000000
     18667       150  23SM      H14F           26.7713724484        1.7309348628       -8.4931820434  MEMB      150             0.0000000000
     18668       150  23SM      H14G           26.9708905750        2.8969011490       -9.8403420413  MEMB      150             0.0000000000
     18669       150  23SM      C15F           28.7944103871        2.2244093483       -8.8040042806  MEMB      150             0.0000000000
     18670       150  23SM      H15F           28.7826961690        3.3063960304       -8.5520342084  MEMB      150             0.0000000000
     18671       150  23SM      H15G           29.5580911997        2.0577120562       -9.5935127510  MEMB      150             0.0000000000
     18672       150  23SM      C16F           29.1583405486        1.3247658573       -7.5625681214  MEMB      150             0.0000000000
     18673       150  23SM      H16F           29.0738759033        0.2988321878       -7.9804765425  MEMB      150             0.0000000000
     18674       150  23SM      H16G           28.2478095070        1.4801243799       -6.9452211856  MEMB      150             0.0000000000
     18675       150  23SM      C17F           30.5146488431        1.4715102869       -6.8951483515  MEMB      150             0.0000000000
     18676       150  23SM      H17F           30.7158971803        2.5390655639       -6.6624554978  MEMB      150             0.0000000000
     18677       150  23SM      H17G           31.3991970835        1.1336691285       -7.4763184668  MEMB      150             0.0000000000
     18678       150  23SM      C18F           30.5143789679        0.7047681108       -5.5123818789  MEMB      150             0.0000000000
     18679       150  23SM      H18F           31.4668234516        0.9766519811       -5.0091438909  MEMB      150             0.0000000000
     18680       150  23SM      H18G           30.5516321226       -0.3763818840       -5.7654586398  MEMB      150             0.0000000000
     18681       150  23SM      C19F           29.3646242516        0.9803587388       -4.4515947289  MEMB      150             0.0000000000
     18682       150  23SM      H19F           28.3684893706        0.5994167394       -4.7629134299  MEMB      150             0.0000000000
     18683       150  23SM      H19G           29.2733378149        2.0219351323       -4.0759538068  MEMB      150             0.0000000000
     18684       150  23SM      C20F           29.4457909678        0.3022183348       -3.1120382885  MEMB      150             0.0000000000
     18685       150  23SM      H20F           30.4915213070        0.2561374890       -2.7396880991  MEMB      150             0.0000000000
     18686       150  23SM      H20G           29.0451229545       -0.7190841740       -3.2873301049  MEMB      150             0.0000000000
     18687       150  23SM      C21F           28.5077100777        0.9125363290       -2.0760671784  MEMB      150             0.0000000000
     18688       150  23SM      H21F           27.4807316975        0.7881784476       -2.4812477350  MEMB      150             0.0000000000
     18689       150  23SM      H21G           28.7020495423        2.0063556921       -2.0654553797  MEMB      150             0.0000000000
     18690       150  23SM      C22F           28.7966700871        0.2071560093       -0.7165127850  MEMB      150             0.0000000000
     18691       150  23SM      H22F           28.1439448175        0.6915607252        0.0408660199  MEMB      150             0.0000000000
     18692       150  23SM      H22G           29.8297865238        0.5326812091       -0.4694810839  MEMB      150             0.0000000000
     18693       150  23SM      C23F           28.5145887177       -1.3524550334       -0.6160491235  MEMB      150             0.0000000000
     18694       150  23SM      H23F           29.0577138289       -1.7541298853        0.2659889564  MEMB      150             0.0000000000
     18695       150  23SM      H23G           28.9233300738       -1.8696899194       -1.5103199451  MEMB      150             0.0000000000
     18696       150  23SM      H23H           27.4823620076       -1.6528767424       -0.3357345773  MEMB      150             0.0000000000
     18697       151  DOPC      N             -12.6878286928      -28.9198783940      -17.5197052904  MEMB      151             0.0000000000
     18698       151  DOPC      C12           -12.8687515490      -28.0763480292      -18.7707101249  MEMB      151             0.0000000000
     18699       151  DOPC      H12A          -12.5519353956      -28.6599277202      -19.6224508441  MEMB      151             0.0000000000
     18700       151  DOPC      H12B          -12.0085501311      -27.4233237039      -18.7742590287  MEMB      151             0.0000000000
     18701       151  DOPC      C13           -12.2604396060      -28.0373331681      -16.3120002383  MEMB      151             0.0000000000
     18702       151  DOPC      H13A          -12.0577659769      -28.7648926075      -15.5400025263  MEMB      151             0.0000000000
     18703       151  DOPC      H13B          -11.3807875888      -27.4571356834      -16.5486078220  MEMB      151             0.0000000000
     18704       151  DOPC      H13C          -13.1047536937      -27.4128832045      -16.0598179313  MEMB      151             0.0000000000
     18705       151  DOPC      C14           -11.5710851195      -29.8682488788      -17.8436702474  MEMB      151             0.0000000000
     18706       151  DOPC      H14A          -10.8680037465      -29.2552344673      -18.3879955263  MEMB      151             0.0000000000
     18707       151  DOPC      H14B          -11.2259229763      -30.2255073912      -16.8846969570  MEMB      151             0.0000000000
     18708       151  DOPC      H14C          -11.9342623973      -30.6408533418      -18.5051720277  MEMB      151             0.0000000000
     18709       151  DOPC      C15           -13.9393255187      -29.6842725917      -17.2099717137  MEMB      151             0.0000000000
     18710       151  DOPC      H15A          -14.7534010980      -28.9745780333      -17.2137955582  MEMB      151             0.0000000000
     18711       151  DOPC      H15B          -13.9283542884      -30.2734683890      -16.3049150105  MEMB      151             0.0000000000
     18712       151  DOPC      H15C          -14.0351355458      -30.3982206401      -18.0146446693  MEMB      151             0.0000000000
     18713       151  DOPC      C11           -14.1282440238      -27.1143650793      -19.0183363581  MEMB      151             0.0000000000
     18714       151  DOPC      H11A          -14.3027623097      -26.5361070388      -18.0858761627  MEMB      151             0.0000000000
     18715       151  DOPC      H11B          -13.9223206103      -26.3300025845      -19.7777388200  MEMB      151             0.0000000000
     18716       151  DOPC      P             -16.1107307579      -27.7689738639      -20.5462441514  MEMB      151             0.0000000000
     18717       151  DOPC      O13           -15.1401304794      -27.8541345960      -21.6529026282  MEMB      151             0.0000000000
     18718       151  DOPC      O14           -16.9868065174      -26.5912070834      -20.4511181146  MEMB      151             0.0000000000
     18719       151  DOPC      O12           -15.3515781699      -27.9160789128      -19.1805755332  MEMB      151             0.0000000000
     18720       151  DOPC      O11           -17.0508547692      -29.0622760074      -20.4947655837  MEMB      151             0.0000000000
     18721       151  DOPC      C1            -17.5926215911      -29.6870530092      -19.3035632654  MEMB      151             0.0000000000
     18722       151  DOPC      HA            -16.7677568874      -30.1051310811      -18.6878278679  MEMB      151             0.0000000000
     18723       151  DOPC      HB            -18.1893625500      -30.5945651905      -19.5373207628  MEMB      151             0.0000000000
     18724       151  DOPC      C2            -18.5364948858      -28.7594289665      -18.3859019645  MEMB      151             0.0000000000
     18725       151  DOPC      HS            -18.9991358545      -27.9473499707      -18.9865780660  MEMB      151             0.0000000000
     18726       151  DOPC      O21           -17.7019694381      -28.2697078746      -17.2815850742  MEMB      151             0.0000000000
     18727       151  DOPC      C21           -17.9710444282      -27.1760574291      -16.5667395098  MEMB      151             0.0000000000
     18728       151  DOPC      O22           -18.8652628460      -26.3926393153      -16.8700137487  MEMB      151             0.0000000000
     18729       151  DOPC      C22           -16.9241604472      -26.9025428663      -15.5256067027  MEMB      151             0.0000000000
     18730       151  DOPC      H2R           -16.1798929509      -26.1247161361      -15.8001472052  MEMB      151             0.0000000000
     18731       151  DOPC      H2S           -16.3449892975      -27.7913424413      -15.1955810694  MEMB      151             0.0000000000
     18732       151  DOPC      C3            -19.7834391172      -29.5155438966      -17.8452111570  MEMB      151             0.0000000000
     18733       151  DOPC      HX            -20.4298408141      -29.8588171032      -18.6810636687  MEMB      151             0.0000000000
     18734       151  DOPC      HY            -20.4076242730      -28.7790812032      -17.2953595978  MEMB      151             0.0000000000
     18735       151  DOPC      O31           -19.3891093362      -30.6430302654      -17.0643280316  MEMB      151             0.0000000000
     18736       151  DOPC      C31           -19.5944783339      -30.8708581577      -15.7920679815  MEMB      151             0.0000000000
     18737       151  DOPC      O32           -20.2943599914      -30.2533952527      -15.0616995339  MEMB      151             0.0000000000
     18738       151  DOPC      C32           -18.5081503564      -31.8409261838      -15.2563168547  MEMB      151             0.0000000000
     18739       151  DOPC      H2X           -18.9444762832      -32.5901156534      -14.5615828986  MEMB      151             0.0000000000
     18740       151  DOPC      H2Y           -18.0740949015      -32.4023341574      -16.1111490827  MEMB      151             0.0000000000
     18741       151  DOPC      C23           -17.5039643457      -26.1095282896      -14.2341550164  MEMB      151             0.0000000000
     18742       151  DOPC      H3R           -17.8131733086      -25.1390200714      -14.6778041267  MEMB      151             0.0000000000
     18743       151  DOPC      H3S           -16.6009911052      -26.0097527154      -13.5946198705  MEMB      151             0.0000000000
     18744       151  DOPC      C24           -18.5649390688      -26.8680536921      -13.4280189980  MEMB      151             0.0000000000
     18745       151  DOPC      H4R           -19.3825444074      -27.1942062597      -14.1058590171  MEMB      151             0.0000000000
     18746       151  DOPC      H4S           -19.0266580145      -26.0897818275      -12.7834802458  MEMB      151             0.0000000000
     18747       151  DOPC      C25           -17.9748336460      -27.9596233212      -12.4772968607  MEMB      151             0.0000000000
     18748       151  DOPC      H5R           -17.1232886512      -28.3905034816      -13.0460976917  MEMB      151             0.0000000000
     18749       151  DOPC      H5S           -18.7689846725      -28.7273397901      -12.3578953891  MEMB      151             0.0000000000
     18750       151  DOPC      C26           -17.6017448456      -27.4980851524      -11.0893652263  MEMB      151             0.0000000000
     18751       151  DOPC      H6R           -18.3625893179      -26.8733397954      -10.5744566649  MEMB      151             0.0000000000
     18752       151  DOPC      H6S           -16.7739744171      -26.7599166000      -11.1543579565  MEMB      151             0.0000000000
     18753       151  DOPC      C27           -17.3606842192      -28.7094279625      -10.1568809613  MEMB      151             0.0000000000
     18754       151  DOPC      H7R           -16.8430395273      -29.4856887118      -10.7600266740  MEMB      151             0.0000000000
     18755       151  DOPC      H7S           -18.3730473657      -29.1510296333      -10.0367574999  MEMB      151             0.0000000000
     18756       151  DOPC      C28           -16.6420966594      -28.4602105447       -8.8258865329  MEMB      151             0.0000000000
     18757       151  DOPC      H8R           -16.1724854702      -29.4381496836       -8.5862592447  MEMB      151             0.0000000000
     18758       151  DOPC      H8S           -17.4109845000      -28.3439277006       -8.0324070113  MEMB      151             0.0000000000
     18759       151  DOPC      C29           -15.5551979517      -27.3860723115       -8.8074093157  MEMB      151             0.0000000000
     18760       151  DOPC      H9R           -15.2103196014      -27.0624914145       -9.8005634799  MEMB      151             0.0000000000
     18761       151  DOPC      C210          -15.1212315147      -26.6994275543       -7.7549378315  MEMB      151             0.0000000000
     18762       151  DOPC      H10R          -14.2661944092      -26.0086503670       -7.7966351225  MEMB      151             0.0000000000
     18763       151  DOPC      C211          -15.5831432242      -26.9139652966       -6.3361776306  MEMB      151             0.0000000000
     18764       151  DOPC      H11R          -14.6501004860      -27.1090794903       -5.7654911858  MEMB      151             0.0000000000
     18765       151  DOPC      H11S          -16.1403216543      -27.8720836562       -6.4128759523  MEMB      151             0.0000000000
     18766       151  DOPC      C212          -16.3818820142      -25.6810968880       -5.8209095422  MEMB      151             0.0000000000
     18767       151  DOPC      H12R          -17.2180281204      -25.4739418788       -6.5225270951  MEMB      151             0.0000000000
     18768       151  DOPC      H12S          -15.6420532246      -24.8529793061       -5.7863351071  MEMB      151             0.0000000000
     18769       151  DOPC      C213          -16.8506229833      -25.9735695068       -4.4065462982  MEMB      151             0.0000000000
     18770       151  DOPC      H13R          -17.2676663966      -25.0466552339       -3.9579639893  MEMB      151             0.0000000000
     18771       151  DOPC      H13S          -16.1123604249      -26.3497292466       -3.6664157863  MEMB      151             0.0000000000
     18772       151  DOPC      C214          -17.8961528542      -27.0718501524       -4.3089079547  MEMB      151             0.0000000000
     18773       151  DOPC      H14R          -17.5590970034      -27.9104189711       -4.9550625121  MEMB      151             0.0000000000
     18774       151  DOPC      H14S          -18.8495930928      -26.7235155162       -4.7605006183  MEMB      151             0.0000000000
     18775       151  DOPC      C215          -18.1094920445      -27.6542941187       -2.8569201795  MEMB      151             0.0000000000
     18776       151  DOPC      H15R          -18.5569803476      -26.8588491023       -2.2234046458  MEMB      151             0.0000000000
     18777       151  DOPC      H15S          -17.1751916124      -27.9721656101       -2.3466646934  MEMB      151             0.0000000000
     18778       151  DOPC      C216          -19.0557853587      -28.8933063400       -2.7111778877  MEMB      151             0.0000000000
     18779       151  DOPC      H16R          -18.5026276225      -29.6794561102       -3.2682285666  MEMB      151             0.0000000000
     18780       151  DOPC      H16S          -20.0979545067      -28.6901554812       -3.0381867928  MEMB      151             0.0000000000
     18781       151  DOPC      C217          -19.2221455150      -29.3642175136       -1.2364797401  MEMB      151             0.0000000000
     18782       151  DOPC      H17R          -18.1753239696      -29.3210462361       -0.8668551651  MEMB      151             0.0000000000
     18783       151  DOPC      H17S          -19.5135221266      -30.4360610552       -1.2125621008  MEMB      151             0.0000000000
     18784       151  DOPC      C218          -19.9873718666      -28.5059885339       -0.2041647756  MEMB      151             0.0000000000
     18785       151  DOPC      H18R          -19.5024185349      -27.5114442965       -0.3042780294  MEMB      151             0.0000000000
     18786       151  DOPC      H18S          -19.8334031328      -28.9256121711        0.8129547793  MEMB      151             0.0000000000
     18787       151  DOPC      H18T          -21.0358586054      -28.3472456936       -0.5355214788  MEMB      151             0.0000000000
     18788       151  DOPC      C33           -17.3826967832      -31.0148091306      -14.6092618890  MEMB      151             0.0000000000
     18789       151  DOPC      H3X           -17.5178303501      -30.9332352912      -13.5095318548  MEMB      151             0.0000000000
     18790       151  DOPC      H3Y           -17.4339529686      -30.0050821425      -15.0698540174  MEMB      151             0.0000000000
     18791       151  DOPC      C34           -16.0118464991      -31.6606443516      -14.8711657902  MEMB      151             0.0000000000
     18792       151  DOPC      H4X           -15.7318361900      -31.5308719470      -15.9384402407  MEMB      151             0.0000000000
     18793       151  DOPC      H4Y           -16.0962393286      -32.7585360732      -14.7234067365  MEMB      151             0.0000000000
     18794       151  DOPC      C35           -14.9671414730      -31.1419873524      -13.9168983308  MEMB      151             0.0000000000
     18795       151  DOPC      H5X           -15.0858303465      -30.0533769330      -13.7293846986  MEMB      151             0.0000000000
     18796       151  DOPC      H5Y           -13.9847927807      -31.2518425435      -14.4240905010  MEMB      151             0.0000000000
     18797       151  DOPC      C36           -14.9606071224      -31.8283597839      -12.5574851581  MEMB      151             0.0000000000
     18798       151  DOPC      H6X           -15.7882214984      -31.4547274097      -11.9173490564  MEMB      151             0.0000000000
     18799       151  DOPC      H6Y           -15.1387930223      -32.9086368629      -12.7460913421  MEMB      151             0.0000000000
     18800       151  DOPC      C37           -13.5456382868      -31.8270120273      -11.9672107424  MEMB      151             0.0000000000
     18801       151  DOPC      H7X           -12.9603187561      -32.3612340314      -12.7458822336  MEMB      151             0.0000000000
     18802       151  DOPC      H7Y           -13.2423546401      -30.7582989957      -11.9533403040  MEMB      151             0.0000000000
     18803       151  DOPC      C38           -13.2879442091      -32.3716376125      -10.5423314193  MEMB      151             0.0000000000
     18804       151  DOPC      H8X           -13.8910351551      -31.7630175087       -9.8350951736  MEMB      151             0.0000000000
     18805       151  DOPC      H8Y           -12.1855096256      -32.3232109672      -10.4134358212  MEMB      151             0.0000000000
     18806       151  DOPC      C39           -13.6392897664      -33.8388251761      -10.3332854261  MEMB      151             0.0000000000
     18807       151  DOPC      H9X           -12.9983870430      -34.5446972954      -10.8819090087  MEMB      151             0.0000000000
     18808       151  DOPC      C310          -14.7241190925      -34.3121306335       -9.5920915755  MEMB      151             0.0000000000
     18809       151  DOPC      H10X          -14.8593316358      -35.4000777104       -9.5021496001  MEMB      151             0.0000000000
     18810       151  DOPC      C311          -15.7920325804      -33.5718149216       -8.8576224130  MEMB      151             0.0000000000
     18811       151  DOPC      H11X          -16.8067341686      -33.9725089117       -9.0677322058  MEMB      151             0.0000000000
     18812       151  DOPC      H11Y          -15.8506377349      -32.5241275921       -9.2226401632  MEMB      151             0.0000000000
     18813       151  DOPC      C312          -15.6146190445      -33.5847089271       -7.2741652927  MEMB      151             0.0000000000
     18814       151  DOPC      H12X          -16.1035419510      -34.4922465775       -6.8598581639  MEMB      151             0.0000000000
     18815       151  DOPC      H12Y          -16.2461347646      -32.7317019359       -6.9457022182  MEMB      151             0.0000000000
     18816       151  DOPC      C313          -14.1996099251      -33.4447865403       -6.7879812840  MEMB      151             0.0000000000
     18817       151  DOPC      H13X          -13.4815230567      -34.2576975998       -7.0284969899  MEMB      151             0.0000000000
     18818       151  DOPC      H13Y          -13.7100822957      -32.6448212106       -7.3835805599  MEMB      151             0.0000000000
     18819       151  DOPC      C314          -14.1071701738      -33.2935862350       -5.2963166955  MEMB      151             0.0000000000
     18820       151  DOPC      H14X          -14.5407417116      -34.1928135089       -4.8087435698  MEMB      151             0.0000000000
     18821       151  DOPC      H14Y          -13.0495413155      -33.3297878003       -4.9580394081  MEMB      151             0.0000000000
     18822       151  DOPC      C315          -14.7742003972      -32.0477896712       -4.7694784518  MEMB      151             0.0000000000
     18823       151  DOPC      H15X          -15.8602707808      -32.1834943401       -4.5788055996  MEMB      151             0.0000000000
     18824       151  DOPC      H15Y          -14.5820897122      -31.1852194575       -5.4428189893  MEMB      151             0.0000000000
     18825       151  DOPC      C316          -14.1454990175      -31.6335150201       -3.4238323673  MEMB      151             0.0000000000
     18826       151  DOPC      H16X          -14.1820991346      -32.4111793370       -2.6312293188  MEMB      151             0.0000000000
     18827       151  DOPC      H16Y          -13.0896801263      -31.2893929798       -3.4577112158  MEMB      151             0.0000000000
     18828       151  DOPC      C317          -14.9242788717      -30.4964946526       -2.7750133275  MEMB      151             0.0000000000
     18829       151  DOPC      H17X          -14.5008274133      -29.5588247811       -3.1942801953  MEMB      151             0.0000000000
     18830       151  DOPC      H17Y          -16.0266881254      -30.4834384730       -2.9122879509  MEMB      151             0.0000000000
     18831       151  DOPC      C318          -14.6229487501      -30.5124902031       -1.2793582484  MEMB      151             0.0000000000
     18832       151  DOPC      H18X          -15.1825146986      -29.7452210231       -0.7027265409  MEMB      151             0.0000000000
     18833       151  DOPC      H18Y          -14.8769600805      -31.5153241833       -0.8742372248  MEMB      151             0.0000000000
     18834       151  DOPC      H18Z          -13.5260570108      -30.3493800500       -1.2119417883  MEMB      151             0.0000000000
     18835       152  DOPE      N             -22.5171369045       22.2441001321      -17.8608192941  MEMB      152             0.0000000000
     18836       152  DOPE      HN1           -22.1328736952       23.2105036356      -17.8633033064  MEMB      152             0.0000000000
     18837       152  DOPE      HN2           -23.5463953960       22.3129673535      -17.7285913729  MEMB      152             0.0000000000
     18838       152  DOPE      HN3           -22.0315694811       21.5992858066      -17.2050458446  MEMB      152             0.0000000000
     18839       152  DOPE      C12           -22.4061440645       21.6376489085      -19.2512320949  MEMB      152             0.0000000000
     18840       152  DOPE      H12A          -21.3230132716       21.4000543723      -19.3197715554  MEMB      152             0.0000000000
     18841       152  DOPE      H12B          -22.7364138699       22.4061184494      -19.9824621769  MEMB      152             0.0000000000
     18842       152  DOPE      C11           -23.2816691252       20.3847756168      -19.2659954457  MEMB      152             0.0000000000
     18843       152  DOPE      H11A          -23.0043108687       19.6922391598      -18.4427174992  MEMB      152             0.0000000000
     18844       152  DOPE      H11B          -23.1210540364       19.7398057151      -20.1562413112  MEMB      152             0.0000000000
     18845       152  DOPE      P             -25.7527103257       19.6175870843      -19.1547224061  MEMB      152             0.0000000000
     18846       152  DOPE      O13           -26.3208320113       19.3632578331      -20.5175424930  MEMB      152             0.0000000000
     18847       152  DOPE      O14           -26.7872089176       19.8577535718      -18.1028339937  MEMB      152             0.0000000000
     18848       152  DOPE      O11           -24.9105245332       18.3336636436      -18.6954750614  MEMB      152             0.0000000000
     18849       152  DOPE      O12           -24.6430597196       20.7319364104      -19.1513792084  MEMB      152             0.0000000000
     18850       152  DOPE      C1            -24.7077050869       17.1522441071      -19.5675937780  MEMB      152             0.0000000000
     18851       152  DOPE      HA            -24.2207158906       17.3969289935      -20.5357320363  MEMB      152             0.0000000000
     18852       152  DOPE      HB            -25.7065917812       16.8302456383      -19.9320979263  MEMB      152             0.0000000000
     18853       152  DOPE      C2            -24.0614399941       16.0132626552      -18.7407289632  MEMB      152             0.0000000000
     18854       152  DOPE      HS            -23.9064428863       15.1385348981      -19.4079231583  MEMB      152             0.0000000000
     18855       152  DOPE      O21           -24.7781019042       15.6711724215      -17.5022486157  MEMB      152             0.0000000000
     18856       152  DOPE      C21           -26.0816950077       15.4280355857      -17.5473799908  MEMB      152             0.0000000000
     18857       152  DOPE      O22           -26.7112059464       15.3683581998      -18.5603959688  MEMB      152             0.0000000000
     18858       152  DOPE      C22           -26.5582730516       15.2035430269      -16.1002489866  MEMB      152             0.0000000000
     18859       152  DOPE      H2R           -25.6771541154       15.1556880041      -15.4252228255  MEMB      152             0.0000000000
     18860       152  DOPE      H2S           -27.2044816922       14.3158548198      -15.9307062974  MEMB      152             0.0000000000
     18861       152  DOPE      C3            -22.6204540959       16.3821428976      -18.3038110746  MEMB      152             0.0000000000
     18862       152  DOPE      HX            -21.8979461669       16.6483337109      -19.1047141919  MEMB      152             0.0000000000
     18863       152  DOPE      HY            -22.3050333722       15.5060419000      -17.6977767503  MEMB      152             0.0000000000
     18864       152  DOPE      O31           -22.6583481104       17.5770771718      -17.4879092443  MEMB      152             0.0000000000
     18865       152  DOPE      C31           -22.1186162546       17.5532633482      -16.3274898131  MEMB      152             0.0000000000
     18866       152  DOPE      O32           -21.4997348318       16.6596852719      -15.7915855856  MEMB      152             0.0000000000
     18867       152  DOPE      C32           -22.3589809542       18.8886501297      -15.7261558797  MEMB      152             0.0000000000
     18868       152  DOPE      H2X           -21.4769203506       19.0221779789      -15.0639923084  MEMB      152             0.0000000000
     18869       152  DOPE      H2Y           -22.3724090999       19.7303501818      -16.4511949920  MEMB      152             0.0000000000
     18870       152  DOPE      C23           -27.2970623631       16.4574851179      -15.6992711986  MEMB      152             0.0000000000
     18871       152  DOPE      H3R           -28.2375069872       16.3858633559      -16.2864299121  MEMB      152             0.0000000000
     18872       152  DOPE      H3S           -26.8588710770       17.4447313082      -15.9593751689  MEMB      152             0.0000000000
     18873       152  DOPE      C24           -27.7258303858       16.6330306577      -14.2724952767  MEMB      152             0.0000000000
     18874       152  DOPE      H4R           -26.8526243309       16.7185582716      -13.5909406305  MEMB      152             0.0000000000
     18875       152  DOPE      H4S           -28.3583710570       15.7774715182      -13.9527577723  MEMB      152             0.0000000000
     18876       152  DOPE      C25           -28.5192869109       17.9686156743      -13.9280305346  MEMB      152             0.0000000000
     18877       152  DOPE      H5R           -29.5576479771       17.9488265384      -14.3226636339  MEMB      152             0.0000000000
     18878       152  DOPE      H5S           -28.0223326233       18.8571436067      -14.3728631008  MEMB      152             0.0000000000
     18879       152  DOPE      C26           -28.6544805082       18.2633499601      -12.4070328118  MEMB      152             0.0000000000
     18880       152  DOPE      H6R           -27.6160875653       18.0499281633      -12.0745993514  MEMB      152             0.0000000000
     18881       152  DOPE      H6S           -29.3221789313       17.4870529983      -11.9759145793  MEMB      152             0.0000000000
     18882       152  DOPE      C27           -29.3405089742       19.5953369547      -12.0030181516  MEMB      152             0.0000000000
     18883       152  DOPE      H7R           -30.2025147570       19.7435512090      -12.6880728132  MEMB      152             0.0000000000
     18884       152  DOPE      H7S           -28.6896774338       20.4730805624      -12.2037800811  MEMB      152             0.0000000000
     18885       152  DOPE      C28           -29.7427242721       19.7030609334      -10.4835903459  MEMB      152             0.0000000000
     18886       152  DOPE      H8R           -30.7193469440       19.1743326315      -10.4523624401  MEMB      152             0.0000000000
     18887       152  DOPE      H8S           -29.9713181998       20.7819548841      -10.3492271172  MEMB      152             0.0000000000
     18888       152  DOPE      C29           -28.7915742665       19.2987112179       -9.3929958086  MEMB      152             0.0000000000
     18889       152  DOPE      H9R           -28.6922950174       18.2040132850       -9.3508040205  MEMB      152             0.0000000000
     18890       152  DOPE      C210          -28.1743096804       20.1052264910       -8.4965092401  MEMB      152             0.0000000000
     18891       152  DOPE      H10R          -27.5086752043       19.6479796747       -7.7496113837  MEMB      152             0.0000000000
     18892       152  DOPE      C211          -28.3565805386       21.5856069050       -8.4548831026  MEMB      152             0.0000000000
     18893       152  DOPE      H11R          -29.4163345242       21.9179885711       -8.4825473839  MEMB      152             0.0000000000
     18894       152  DOPE      H11S          -27.7699391878       21.9587859193       -9.3214339617  MEMB      152             0.0000000000
     18895       152  DOPE      C212          -27.8428524376       22.2811826041       -7.1391033996  MEMB      152             0.0000000000
     18896       152  DOPE      H12R          -27.9322961311       23.3863408659       -7.0687755468  MEMB      152             0.0000000000
     18897       152  DOPE      H12S          -26.7679977649       22.1068806265       -6.9185876720  MEMB      152             0.0000000000
     18898       152  DOPE      C213          -28.6540135052       21.7826168735       -5.8444367955  MEMB      152             0.0000000000
     18899       152  DOPE      H13R          -28.3709384197       20.7274753114       -5.6422847105  MEMB      152             0.0000000000
     18900       152  DOPE      H13S          -29.7566792915       21.7123716437       -5.9606894045  MEMB      152             0.0000000000
     18901       152  DOPE      C214          -28.2569182860       22.6679528419       -4.6678403272  MEMB      152             0.0000000000
     18902       152  DOPE      H14R          -28.8562206556       22.2022149511       -3.8565172853  MEMB      152             0.0000000000
     18903       152  DOPE      H14S          -28.5573753027       23.7338539532       -4.7567287176  MEMB      152             0.0000000000
     18904       152  DOPE      C215          -26.7908744890       22.5429701316       -4.1190180012  MEMB      152             0.0000000000
     18905       152  DOPE      H15R          -26.1261378421       22.8910831949       -4.9383243887  MEMB      152             0.0000000000
     18906       152  DOPE      H15S          -26.5528130684       21.4642969051       -4.0002230882  MEMB      152             0.0000000000
     18907       152  DOPE      C216          -26.5956642070       23.1498313929       -2.7364816575  MEMB      152             0.0000000000
     18908       152  DOPE      H16R          -26.7055730859       24.2552233008       -2.7177711851  MEMB      152             0.0000000000
     18909       152  DOPE      H16S          -25.5739337100       22.9471841637       -2.3500592769  MEMB      152             0.0000000000
     18910       152  DOPE      C217          -27.6640091807       22.7484610857       -1.7044375997  MEMB      152             0.0000000000
     18911       152  DOPE      H17R          -27.5982132502       21.6415407134       -1.7731329791  MEMB      152             0.0000000000
     18912       152  DOPE      H17S          -28.6202089334       23.1400459191       -2.1126836325  MEMB      152             0.0000000000
     18913       152  DOPE      C218          -27.3018121607       23.2357034583       -0.2877511764  MEMB      152             0.0000000000
     18914       152  DOPE      H18R          -27.2589877296       24.3438077859       -0.3555136637  MEMB      152             0.0000000000
     18915       152  DOPE      H18S          -26.3286574809       22.7835822365        0.0001323629  MEMB      152             0.0000000000
     18916       152  DOPE      H18T          -28.1816221480       22.8945728074        0.2986659051  MEMB      152             0.0000000000
     18917       152  DOPE      C33           -23.7724052206       18.8739044506      -15.0223089172  MEMB      152             0.0000000000
     18918       152  DOPE      H3X           -23.8704788928       17.9631795138      -14.3935936780  MEMB      152             0.0000000000
     18919       152  DOPE      H3Y           -24.6211678729       18.8583986853      -15.7390254397  MEMB      152             0.0000000000
     18920       152  DOPE      C34           -23.8591575510       20.0701775282      -14.0519544348  MEMB      152             0.0000000000
     18921       152  DOPE      H4X           -22.8632934466       20.2211317590      -13.5831385183  MEMB      152             0.0000000000
     18922       152  DOPE      H4Y           -24.1639029822       21.0575818044      -14.4599787438  MEMB      152             0.0000000000
     18923       152  DOPE      C35           -24.9925806108       19.7727544302      -13.0588646772  MEMB      152             0.0000000000
     18924       152  DOPE      H5X           -24.7131304928       18.8804092543      -12.4589074350  MEMB      152             0.0000000000
     18925       152  DOPE      H5Y           -25.8766281184       19.4477317074      -13.6480516554  MEMB      152             0.0000000000
     18926       152  DOPE      C36           -25.2240330460       20.8742601663      -11.9755857787  MEMB      152             0.0000000000
     18927       152  DOPE      H6X           -25.9964642671       20.4723027932      -11.2855849957  MEMB      152             0.0000000000
     18928       152  DOPE      H6Y           -25.6420321622       21.8000854886      -12.4255248721  MEMB      152             0.0000000000
     18929       152  DOPE      C37           -23.9518049799       21.3318193004      -11.1489622146  MEMB      152             0.0000000000
     18930       152  DOPE      H7X           -23.2543508089       21.7701797801      -11.8944274305  MEMB      152             0.0000000000
     18931       152  DOPE      H7Y           -24.3147121121       22.1541766012      -10.4960088370  MEMB      152             0.0000000000
     18932       152  DOPE      C38           -23.2667427686       20.3130476131      -10.1566981673  MEMB      152             0.0000000000
     18933       152  DOPE      H8X           -24.0176062416       19.9063068716       -9.4460034021  MEMB      152             0.0000000000
     18934       152  DOPE      H8Y           -22.7381418106       21.0492101647       -9.5140730819  MEMB      152             0.0000000000
     18935       152  DOPE      C39           -22.5034249540       19.1523518089      -10.7808795515  MEMB      152             0.0000000000
     18936       152  DOPE      H9X           -21.6460053453       19.4572777301      -11.3988218569  MEMB      152             0.0000000000
     18937       152  DOPE      C310          -22.5542508911       17.8474489911      -10.5036542330  MEMB      152             0.0000000000
     18938       152  DOPE      H10X          -21.7901130928       17.1768495675      -10.9236425708  MEMB      152             0.0000000000
     18939       152  DOPE      C311          -23.4612646878       17.1599532837       -9.4586052336  MEMB      152             0.0000000000
     18940       152  DOPE      H11X          -24.4790988834       17.5991356945       -9.3847588821  MEMB      152             0.0000000000
     18941       152  DOPE      H11Y          -23.5203923621       16.0912365436       -9.7563797996  MEMB      152             0.0000000000
     18942       152  DOPE      C312          -22.9968303279       17.1801505330       -7.9941013949  MEMB      152             0.0000000000
     18943       152  DOPE      H12X          -22.8543305243       18.2169399359       -7.6211636484  MEMB      152             0.0000000000
     18944       152  DOPE      H12Y          -22.0105484580       16.6786503890       -7.8937689393  MEMB      152             0.0000000000
     18945       152  DOPE      C313          -24.0382324274       16.5468374058       -7.0501850781  MEMB      152             0.0000000000
     18946       152  DOPE      H13X          -25.0080616128       17.0615053948       -7.2200945486  MEMB      152             0.0000000000
     18947       152  DOPE      H13Y          -24.1222455458       15.4752269842       -7.3311027145  MEMB      152             0.0000000000
     18948       152  DOPE      C314          -23.8774779699       16.6537076095       -5.5730269263  MEMB      152             0.0000000000
     18949       152  DOPE      H14X          -22.8663580967       16.2943713953       -5.2852169225  MEMB      152             0.0000000000
     18950       152  DOPE      H14Y          -24.6631102249       16.1626957706       -4.9598309076  MEMB      152             0.0000000000
     18951       152  DOPE      C315          -23.7160368137       18.0917112369       -5.0605728564  MEMB      152             0.0000000000
     18952       152  DOPE      H15X          -24.6339649868       18.6598188532       -5.3232178876  MEMB      152             0.0000000000
     18953       152  DOPE      H15Y          -22.7977636524       18.4838748694       -5.5477106629  MEMB      152             0.0000000000
     18954       152  DOPE      C316          -23.5452171358       18.0811241900       -3.5376327832  MEMB      152             0.0000000000
     18955       152  DOPE      H16X          -22.6990417306       17.3905887516       -3.3339934467  MEMB      152             0.0000000000
     18956       152  DOPE      H16Y          -24.4599406856       17.6129376848       -3.1152555171  MEMB      152             0.0000000000
     18957       152  DOPE      C317          -23.2543206008       19.5498524019       -3.1105461766  MEMB      152             0.0000000000
     18958       152  DOPE      H17X          -22.2043789674       19.7998078487       -3.3741098274  MEMB      152             0.0000000000
     18959       152  DOPE      H17Y          -23.8123881360       20.2812572510       -3.7333852139  MEMB      152             0.0000000000
     18960       152  DOPE      C318          -23.5602899337       19.9515654912       -1.6433676101  MEMB      152             0.0000000000
     18961       152  DOPE      H18X          -23.3070676600       20.9956644063       -1.3604244305  MEMB      152             0.0000000000
     18962       152  DOPE      H18Y          -24.6076954859       19.6035678522       -1.5162445774  MEMB      152             0.0000000000
     18963       152  DOPE      H18Z          -23.0313555728       19.1648886599       -1.0639805796  MEMB      152             0.0000000000
     18964       153  CHL1      C3            -28.8941515078       13.1647262715      -17.3613950000  MEMB      153             0.0000000000
     18965       153  CHL1      H3            -28.5238767653       12.1190520315      -17.4229050000  MEMB      153             0.0000000000
     18966       153  CHL1      O3            -29.3266644922       13.6097505285      -18.6386050000  MEMB      153             0.0000000000
     18967       153  CHL1      H3'           -28.6785125858       13.1842122518      -19.2046550000  MEMB      153             0.0000000000
     18968       153  CHL1      C4            -30.0942364195       13.2281431856      -16.4201350000  MEMB      153             0.0000000000
     18969       153  CHL1      H4A           -30.5264775906       14.2500992845      -16.4757950000  MEMB      153             0.0000000000
     18970       153  CHL1      H4B           -30.8281135405       12.5174221053      -16.8567450000  MEMB      153             0.0000000000
     18971       153  CHL1      C5            -29.7477053900       12.8993981110      -14.9536750000  MEMB      153             0.0000000000
     18972       153  CHL1      C6            -30.3024206865       11.8854986474      -14.3222750000  MEMB      153             0.0000000000
     18973       153  CHL1      H6            -31.0686069592       11.3430392954      -14.8955950000  MEMB      153             0.0000000000
     18974       153  CHL1      C7            -30.1115450091       11.4818322577      -12.9239350000  MEMB      153             0.0000000000
     18975       153  CHL1      H7A           -31.1146574142       11.1498520671      -12.5806150000  MEMB      153             0.0000000000
     18976       153  CHL1      H7B           -29.3848552047       10.6455123997      -12.8414350000  MEMB      153             0.0000000000
     18977       153  CHL1      C8            -29.5395635828       12.7869906837      -12.1811150000  MEMB      153             0.0000000000
     18978       153  CHL1      H8            -30.3458020373       13.5499146107      -12.2285450000  MEMB      153             0.0000000000
     18979       153  CHL1      C14           -29.2775417017       12.4174465607      -10.6312350000  MEMB      153             0.0000000000
     18980       153  CHL1      H14           -28.3966095102       11.7419714333      -10.5864850000  MEMB      153             0.0000000000
     18981       153  CHL1      C15           -30.2782609580       11.5769826207       -9.8816450000  MEMB      153             0.0000000000
     18982       153  CHL1      H15A          -31.2709432975       12.0103112210      -10.1289050000  MEMB      153             0.0000000000
     18983       153  CHL1      H15B          -30.1824835259       10.5102272130      -10.1769350000  MEMB      153             0.0000000000
     18984       153  CHL1      C16           -29.8723995308       11.8234588045       -8.4032750000  MEMB      153             0.0000000000
     18985       153  CHL1      H16A          -30.7314383445       12.1722793785       -7.7911650000  MEMB      153             0.0000000000
     18986       153  CHL1      H16B          -29.4475325447       10.9156340909       -7.9240550000  MEMB      153             0.0000000000
     18987       153  CHL1      C17           -28.7279909763       12.9468851655       -8.4103250000  MEMB      153             0.0000000000
     18988       153  CHL1      H17           -27.7258257348       12.4721296903       -8.4781450000  MEMB      153             0.0000000000
     18989       153  CHL1      C13           -28.7909447959       13.5858864230       -9.8440250000  MEMB      153             0.0000000000
     18990       153  CHL1      C18           -29.9273888184       14.6563025895       -9.8173050000  MEMB      153             0.0000000000
     18991       153  CHL1      H18A          -30.9255243505       14.1763130666       -9.7297750000  MEMB      153             0.0000000000
     18992       153  CHL1      H18B          -29.7244523138       15.3091876964       -8.9415850000  MEMB      153             0.0000000000
     18993       153  CHL1      H18C          -29.9114196182       15.2988367556      -10.7235250000  MEMB      153             0.0000000000
     18994       153  CHL1      C12           -27.3864930582       14.0880611643      -10.3846450000  MEMB      153             0.0000000000
     18995       153  CHL1      H12A          -26.9891655687       14.8719444376       -9.7049650000  MEMB      153             0.0000000000
     18996       153  CHL1      H12B          -26.5881199550       13.3200909368      -10.3001950000  MEMB      153             0.0000000000
     18997       153  CHL1      C11           -27.5400984525       14.4284000773      -11.8845650000  MEMB      153             0.0000000000
     18998       153  CHL1      H11A          -28.0623763597       15.3991225568      -12.0232750000  MEMB      153             0.0000000000
     18999       153  CHL1      H11B          -26.5544393360       14.6806648290      -12.3308350000  MEMB      153             0.0000000000
     19000       153  CHL1      C9            -28.2801987663       13.3516332902      -12.8183350000  MEMB      153             0.0000000000
     19001       153  CHL1      H9            -27.5941543189       12.4907462294      -12.9684250000  MEMB      153             0.0000000000
     19002       153  CHL1      C10           -28.6181821592       13.8174023185      -14.3272450000  MEMB      153             0.0000000000
     19003       153  CHL1      C19           -29.2615140416       15.2352308090      -14.2771750000  MEMB      153             0.0000000000
     19004       153  CHL1      H19A          -28.3844011927       15.7840966171      -13.8725150000  MEMB      153             0.0000000000
     19005       153  CHL1      H19B          -29.3938757067       15.7052070506      -15.2751350000  MEMB      153             0.0000000000
     19006       153  CHL1      H19C          -30.0138823244       15.4615038818      -13.4916450000  MEMB      153             0.0000000000
     19007       153  CHL1      C1            -27.3386749476       13.7751584809      -15.3131550000  MEMB      153             0.0000000000
     19008       153  CHL1      H1A           -26.5617515670       14.4744988563      -14.9368150000  MEMB      153             0.0000000000
     19009       153  CHL1      H1B           -26.8618334241       12.7956140380      -15.0953450000  MEMB      153             0.0000000000
     19010       153  CHL1      C2            -27.7121684368       14.0559406796      -16.8056150000  MEMB      153             0.0000000000
     19011       153  CHL1      H2A           -26.8137382427       13.8921127489      -17.4383150000  MEMB      153             0.0000000000
     19012       153  CHL1      H2B           -28.1233114527       15.0782520873      -16.9475350000  MEMB      153             0.0000000000
     19013       153  CHL1      C20           -28.6423017904       13.7326932860       -7.0274650000  MEMB      153             0.0000000000
     19014       153  CHL1      H20           -29.5811009718       14.3265705184       -7.0440650000  MEMB      153             0.0000000000
     19015       153  CHL1      C21           -27.3997571012       14.6958354558       -7.1161350000  MEMB      153             0.0000000000
     19016       153  CHL1      H21A          -27.4443528622       15.4389658921       -7.9408050000  MEMB      153             0.0000000000
     19017       153  CHL1      H21B          -26.4653422910       14.0998579162       -7.1935450000  MEMB      153             0.0000000000
     19018       153  CHL1      H21C          -27.2347961332       15.1741703993       -6.1270450000  MEMB      153             0.0000000000
     19019       153  CHL1      C22           -28.6038416150       12.7710643710       -5.8143350000  MEMB      153             0.0000000000
     19020       153  CHL1      H22A          -28.1346295721       11.8636587459       -6.2511050000  MEMB      153             0.0000000000
     19021       153  CHL1      H22B          -27.9700587629       13.1464120360       -4.9826150000  MEMB      153             0.0000000000
     19022       153  CHL1      C23           -29.9500830210       12.3738455666       -5.2174750000  MEMB      153             0.0000000000
     19023       153  CHL1      H23A          -30.6490019737       13.2039101873       -4.9790750000  MEMB      153             0.0000000000
     19024       153  CHL1      H23B          -30.5672455105       11.7096636523       -5.8595750000  MEMB      153             0.0000000000
     19025       153  CHL1      C24           -29.7437651884       11.6669574599       -3.8942650000  MEMB      153             0.0000000000
     19026       153  CHL1      H24A          -29.2654379588       10.6652152700       -3.9394150000  MEMB      153             0.0000000000
     19027       153  CHL1      H24B          -29.0295130571       12.2132624152       -3.2417950000  MEMB      153             0.0000000000
     19028       153  CHL1      C25           -31.0424888799       11.7267839539       -3.1326150000  MEMB      153             0.0000000000
     19029       153  CHL1      H25           -31.6168936915       12.6754071384       -3.1997250000  MEMB      153             0.0000000000
     19030       153  CHL1      C26           -31.9200200975       10.6423076667       -3.7052750000  MEMB      153             0.0000000000
     19031       153  CHL1      H26A          -32.2691454221       10.9913495596       -4.7005650000  MEMB      153             0.0000000000
     19032       153  CHL1      H26B          -31.4058097298        9.6812888570       -3.9205850000  MEMB      153             0.0000000000
     19033       153  CHL1      H26C          -32.7239153401       10.2555581682       -3.0430950000  MEMB      153             0.0000000000
     19034       153  CHL1      C27           -30.9368756063       11.2978337473       -1.6388350000  MEMB      153             0.0000000000
     19035       153  CHL1      H27A          -30.5617007767       10.2522231168       -1.6225250000  MEMB      153             0.0000000000
     19036       153  CHL1      H27B          -30.2050569868       12.0176420864       -1.2138050000  MEMB      153             0.0000000000
     19037       153  CHL1      H27C          -31.9425970580       11.3663412806       -1.1717750000  MEMB      153             0.0000000000
     19038       154  23SM      N              13.3878077580       28.7888465108      -27.7528416861  MEMB      154             0.0000000000
     19039       154  23SM      C15            11.9852787989       28.9366725985      -27.2710404129  MEMB      154             0.0000000000
     19040       154  23SM      H15A           12.0034639664       28.5806290404      -26.2515786006  MEMB      154             0.0000000000
     19041       154  23SM      H15B           11.3761211498       28.2975687309      -27.8930317037  MEMB      154             0.0000000000
     19042       154  23SM      H15C           11.6999782644       29.9706744314      -27.3969125295  MEMB      154             0.0000000000
     19043       154  23SM      C14            13.8870678113       27.3659387326      -27.4964870037  MEMB      154             0.0000000000
     19044       154  23SM      H14A           13.2311488330       26.5859378176      -27.8539348461  MEMB      154             0.0000000000
     19045       154  23SM      H14B           13.9396637663       27.3137209889      -26.4190330905  MEMB      154             0.0000000000
     19046       154  23SM      H14C           14.7638957179       27.2501611594      -28.1163003732  MEMB      154             0.0000000000
     19047       154  23SM      C13            13.4119071507       28.8711650215      -29.3033238034  MEMB      154             0.0000000000
     19048       154  23SM      H13A           12.9881671473       29.7873299860      -29.6873633891  MEMB      154             0.0000000000
     19049       154  23SM      H13B           12.8916861372       28.0168392566      -29.7106290817  MEMB      154             0.0000000000
     19050       154  23SM      H13C           14.4170535090       28.8980761637      -29.6974768021  MEMB      154             0.0000000000
     19051       154  23SM      C12            14.3474064818       29.7718034346      -27.0768553959  MEMB      154             0.0000000000
     19052       154  23SM      H12A           14.0630094689       30.8043248409      -27.2162040664  MEMB      154             0.0000000000
     19053       154  23SM      H12B           15.2617504198       29.7221473947      -27.6494892807  MEMB      154             0.0000000000
     19054       154  23SM      C11            14.7653893698       29.6442487791      -25.5837335538  MEMB      154             0.0000000000
     19055       154  23SM      H11A           13.7702620410       29.8462029728      -25.1328930763  MEMB      154             0.0000000000
     19056       154  23SM      H11B           15.4057868025       30.5030427457      -25.2893103267  MEMB      154             0.0000000000
     19057       154  23SM      P              16.5464110341       28.1738856398      -24.3032093628  MEMB      154             0.0000000000
     19058       154  23SM      O13            17.1255219809       26.8802826900      -24.6699506635  MEMB      154             0.0000000000
     19059       154  23SM      O14            17.4125206983       29.3725732417      -24.3764553453  MEMB      154             0.0000000000
     19060       154  23SM      O11            15.8014602652       28.0688505463      -22.9123518009  MEMB      154             0.0000000000
     19061       154  23SM      O12            15.3531711557       28.4233307036      -25.2537509761  MEMB      154             0.0000000000
     19062       154  23SM      C1S            14.5500436256       27.4628391782      -22.7637549892  MEMB      154             0.0000000000
     19063       154  23SM      H1S            14.4602155602       26.4301698140      -23.1635625977  MEMB      154             0.0000000000
     19064       154  23SM      H1T            13.7496095758       28.0753901702      -23.2310958681  MEMB      154             0.0000000000
     19065       154  23SM      NF             14.5757389849       28.5882966175      -20.5396083116  MEMB      154             0.0000000000
     19066       154  23SM      HNF            15.4392907764       28.5337190075      -20.0443222573  MEMB      154             0.0000000000
     19067       154  23SM      C2S            14.1972919037       27.3878115616      -21.2459115055  MEMB      154             0.0000000000
     19068       154  23SM      H2S            13.0981420490       27.3599516873      -21.0864928886  MEMB      154             0.0000000000
     19069       154  23SM      C3S            14.8336209635       26.2541058237      -20.5705075660  MEMB      154             0.0000000000
     19070       154  23SM      H3S            15.9186073827       26.1945894368      -20.8019883874  MEMB      154             0.0000000000
     19071       154  23SM      O3             14.2861966100       25.1591912833      -21.2425744830  MEMB      154             0.0000000000
     19072       154  23SM      HO3            13.7594604845       25.5220992488      -21.9584286848  MEMB      154             0.0000000000
     19073       154  23SM      C4S            14.4521171898       26.1172295899      -19.0885812408  MEMB      154             0.0000000000
     19074       154  23SM      H4S            13.3857938102       26.2289588570      -18.8426729290  MEMB      154             0.0000000000
     19075       154  23SM      C5S            15.2793008856       26.2934544335      -18.0390849649  MEMB      154             0.0000000000
     19076       154  23SM      H5S            16.3419480699       26.5408343962      -18.1790279004  MEMB      154             0.0000000000
     19077       154  23SM      C6S            14.8016810836       26.1919242725      -16.5795750901  MEMB      154             0.0000000000
     19078       154  23SM      H6S            13.9537430665       26.9023254405      -16.4763646417  MEMB      154             0.0000000000
     19079       154  23SM      H6T            15.6508412078       26.4145469124      -15.8986288513  MEMB      154             0.0000000000
     19080       154  23SM      C7S            14.1675513608       24.8360091825      -16.2131172487  MEMB      154             0.0000000000
     19081       154  23SM      H7S            14.9508087180       24.0485328629      -16.2397654761  MEMB      154             0.0000000000
     19082       154  23SM      H7T            13.4349176804       24.6485376643      -17.0270109962  MEMB      154             0.0000000000
     19083       154  23SM      C8S            13.5262804444       24.8456769080      -14.7642101149  MEMB      154             0.0000000000
     19084       154  23SM      H8S            12.8891926323       23.9354906359      -14.7649999423  MEMB      154             0.0000000000
     19085       154  23SM      H8T            12.8001296667       25.6609175257      -14.5582772062  MEMB      154             0.0000000000
     19086       154  23SM      C9S            14.5705744756       24.7086757726      -13.5913243941  MEMB      154             0.0000000000
     19087       154  23SM      H9S            15.3712847268       25.4497722352      -13.8009912505  MEMB      154             0.0000000000
     19088       154  23SM      H9T            15.0372146902       23.7005490244      -13.6070716826  MEMB      154             0.0000000000
     19089       154  23SM      C10S           13.9045612222       24.8879949622      -12.2006627997  MEMB      154             0.0000000000
     19090       154  23SM      H10S           13.1886767686       24.0434539310      -12.1080297871  MEMB      154             0.0000000000
     19091       154  23SM      H10T           13.2960630076       25.8161340813      -12.2517402262  MEMB      154             0.0000000000
     19092       154  23SM      C11S           14.8941564751       24.8074223383      -11.0298286734  MEMB      154             0.0000000000
     19093       154  23SM      H11S           15.6962355357       25.5753643386      -11.0652605540  MEMB      154             0.0000000000
     19094       154  23SM      H11T           15.4615435918       23.8591424217      -10.9151212087  MEMB      154             0.0000000000
     19095       154  23SM      C12S           14.3541543172       25.0473401299       -9.5749699321  MEMB      154             0.0000000000
     19096       154  23SM      H12S           13.7295455928       24.1792572837       -9.2739437336  MEMB      154             0.0000000000
     19097       154  23SM      H12T           13.7140112040       25.9527007628       -9.5052568982  MEMB      154             0.0000000000
     19098       154  23SM      C13S           15.4986649304       25.0434960498       -8.4769947072  MEMB      154             0.0000000000
     19099       154  23SM      H13S           16.0498042380       25.9987475001       -8.6113871025  MEMB      154             0.0000000000
     19100       154  23SM      H13T           16.0294063593       24.0775934077       -8.6172319820  MEMB      154             0.0000000000
     19101       154  23SM      C14S           14.9668382584       24.8859414001       -7.0770931364  MEMB      154             0.0000000000
     19102       154  23SM      H14S           14.3478681140       23.9633434211       -7.0802035516  MEMB      154             0.0000000000
     19103       154  23SM      H14T           14.2016359344       25.6482106511       -6.8168393381  MEMB      154             0.0000000000
     19104       154  23SM      C15S           15.9822088137       24.8831034672       -5.9124767375  MEMB      154             0.0000000000
     19105       154  23SM      H15S           16.5840099645       25.8055605203       -6.0581805267  MEMB      154             0.0000000000
     19106       154  23SM      H15T           16.6184857491       23.9734020470       -5.9562427435  MEMB      154             0.0000000000
     19107       154  23SM      C16S           15.2603290779       24.9009744454       -4.5542847590  MEMB      154             0.0000000000
     19108       154  23SM      H16S           14.3434231443       24.2767884112       -4.4910673507  MEMB      154             0.0000000000
     19109       154  23SM      H16T           14.7222860215       25.8688443715       -4.4645171300  MEMB      154             0.0000000000
     19110       154  23SM      C17S           16.1643188111       24.6493217779       -3.2980425693  MEMB      154             0.0000000000
     19111       154  23SM      H17S           17.0048605196       25.3632272264       -3.1633234503  MEMB      154             0.0000000000
     19112       154  23SM      H17T           16.5981639984       23.6265756757       -3.2885526244  MEMB      154             0.0000000000
     19113       154  23SM      C18S           15.4450096391       24.8777182280       -1.9412699011  MEMB      154             0.0000000000
     19114       154  23SM      H18S           15.9219051622       24.2928474889       -1.1259064727  MEMB      154             0.0000000000
     19115       154  23SM      H18T           14.4490519296       24.3857814586       -1.9609520515  MEMB      154             0.0000000000
     19116       154  23SM      H18U           15.2912372842       25.9581509950       -1.7330855948  MEMB      154             0.0000000000
     19117       154  23SM      C1F            14.0413345296       29.8052679148      -20.7779585087  MEMB      154             0.0000000000
     19118       154  23SM      OF             12.8823340913       29.9709041458      -21.2421220955  MEMB      154             0.0000000000
     19119       154  23SM      C2F            14.8569482452       30.9314894135      -20.2632390004  MEMB      154             0.0000000000
     19120       154  23SM      H2F            14.8563799051       31.7220221621      -21.0438660087  MEMB      154             0.0000000000
     19121       154  23SM      H2G            15.9022981624       30.6136412768      -20.0619003910  MEMB      154             0.0000000000
     19122       154  23SM      C3F            14.1106734762       31.6871968119      -19.1213357124  MEMB      154             0.0000000000
     19123       154  23SM      H3F            13.0346542442       31.8761349998      -19.3233408406  MEMB      154             0.0000000000
     19124       154  23SM      H3G            14.5603150639       32.7017007642      -19.0672501598  MEMB      154             0.0000000000
     19125       154  23SM      C4F            14.3741571877       31.0714308743      -17.7431689047  MEMB      154             0.0000000000
     19126       154  23SM      H4F            15.4620483156       30.8513158677      -17.6945555217  MEMB      154             0.0000000000
     19127       154  23SM      H4G            13.7018263498       30.2188413956      -17.5078323912  MEMB      154             0.0000000000
     19128       154  23SM      C5F            13.9597189912       32.0383161358      -16.5799408780  MEMB      154             0.0000000000
     19129       154  23SM      H5F            12.8988345975       32.3609487144      -16.6488862653  MEMB      154             0.0000000000
     19130       154  23SM      H5G            14.5694607119       32.9446683124      -16.7825779908  MEMB      154             0.0000000000
     19131       154  23SM      C6F            14.2626763052       31.5600067667      -15.1666910463  MEMB      154             0.0000000000
     19132       154  23SM      H6F            14.3312195014       32.5469105316      -14.6610782693  MEMB      154             0.0000000000
     19133       154  23SM      H6G            15.2332587258       31.0203314584      -15.1989572091  MEMB      154             0.0000000000
     19134       154  23SM      C7F            13.2106232379       30.5740421832      -14.5907594855  MEMB      154             0.0000000000
     19135       154  23SM      H7F            13.2327093078       29.7477602919      -15.3331151510  MEMB      154             0.0000000000
     19136       154  23SM      H7G            12.3022412090       31.2109212040      -14.6503248679  MEMB      154             0.0000000000
     19137       154  23SM      C8F            13.5298115125       30.3407597134      -13.1072859491  MEMB      154             0.0000000000
     19138       154  23SM      H8F            12.7182610728       29.7873888140      -12.5881640068  MEMB      154             0.0000000000
     19139       154  23SM      H8G            13.6215199410       31.3231586688      -12.5965978692  MEMB      154             0.0000000000
     19140       154  23SM      C9F            14.7129021773       29.3695931921      -12.8643666811  MEMB      154             0.0000000000
     19141       154  23SM      H9F            15.6209038513       29.9045341603      -13.2160653206  MEMB      154             0.0000000000
     19142       154  23SM      H9G            14.4794302804       28.4117340897      -13.3765367732  MEMB      154             0.0000000000
     19143       154  23SM      C10F           15.0736122634       28.7574277584      -11.5203424809  MEMB      154             0.0000000000
     19144       154  23SM      H10F           15.8339388555       27.9692514036      -11.7074327277  MEMB      154             0.0000000000
     19145       154  23SM      H10G           14.1545424936       28.3402004084      -11.0560659568  MEMB      154             0.0000000000
     19146       154  23SM      C11F           15.7609124126       29.7427570478      -10.5141911293  MEMB      154             0.0000000000
     19147       154  23SM      H11F           15.1389237291       30.6513430630      -10.3661291723  MEMB      154             0.0000000000
     19148       154  23SM      H11G           16.7124618944       30.0579285362      -10.9932962302  MEMB      154             0.0000000000
     19149       154  23SM      C12F           16.1916159987       29.1044528366       -9.1670605159  MEMB      154             0.0000000000
     19150       154  23SM      H12F           16.7842484423       28.2348045216       -9.5231773297  MEMB      154             0.0000000000
     19151       154  23SM      H12G           15.3996769620       28.8453348959       -8.4322056803  MEMB      154             0.0000000000
     19152       154  23SM      C13F           17.2407726341       29.9956283363       -8.4445156964  MEMB      154             0.0000000000
     19153       154  23SM      H13F           16.8386564369       31.0095163940       -8.2331989544  MEMB      154             0.0000000000
     19154       154  23SM      H13G           18.1434140149       30.0740378890       -9.0874867637  MEMB      154             0.0000000000
     19155       154  23SM      C14F           17.4526015632       29.2998430884       -7.0704708756  MEMB      154             0.0000000000
     19156       154  23SM      H14F           18.0326961437       28.3775329219       -7.2876233329  MEMB      154             0.0000000000
     19157       154  23SM      H14G           16.4604863769       29.1183291903       -6.6045501625  MEMB      154             0.0000000000
     19158       154  23SM      C15F           18.3091032195       30.0734285815       -6.1246889778  MEMB      154             0.0000000000
     19159       154  23SM      H15F           17.8112194997       31.0168658437       -5.8142710758  MEMB      154             0.0000000000
     19160       154  23SM      H15G           19.2983562133       30.3892214982       -6.5196249021  MEMB      154             0.0000000000
     19161       154  23SM      C16F           18.5284522600       29.1858566061       -4.8541646611  MEMB      154             0.0000000000
     19162       154  23SM      H16F           19.6089345803       29.1876299008       -4.5955603316  MEMB      154             0.0000000000
     19163       154  23SM      H16G           18.3211124776       28.1209334890       -5.0934757028  MEMB      154             0.0000000000
     19164       154  23SM      C17F           17.6693571705       29.4824190960       -3.5947051154  MEMB      154             0.0000000000
     19165       154  23SM      H17F           17.6798626936       30.5769225431       -3.4042499589  MEMB      154             0.0000000000
     19166       154  23SM      H17G           18.2758063168       28.9887840156       -2.8054870521  MEMB      154             0.0000000000
     19167       154  23SM      C18F           16.3243010703       28.8200768247       -3.4184540081  MEMB      154             0.0000000000
     19168       154  23SM      H18F           16.2696363446       27.7860336153       -3.8210550034  MEMB      154             0.0000000000
     19169       154  23SM      H18G           15.5241537289       29.3407691211       -3.9867536686  MEMB      154             0.0000000000
     19170       154  23SM      C19F           15.8340126540       28.6745676096       -1.9679226360  MEMB      154             0.0000000000
     19171       154  23SM      H19F           16.4802775869       28.0737842433       -1.2928509541  MEMB      154             0.0000000000
     19172       154  23SM      H19G           14.9890595814       27.9536920819       -1.9946419934  MEMB      154             0.0000000000
     19173       154  23SM      C20F           15.2776054361       29.9965130099       -1.3530627584  MEMB      154             0.0000000000
     19174       154  23SM      H20F           14.4829126022       29.6258354857       -0.6708745016  MEMB      154             0.0000000000
     19175       154  23SM      H20G           14.9999705601       30.6583992400       -2.2010874115  MEMB      154             0.0000000000
     19176       154  23SM      C21F           16.2990231788       30.6240750416       -0.4598377474  MEMB      154             0.0000000000
     19177       154  23SM      H21F           17.3027391849       30.1525680084       -0.5273352814  MEMB      154             0.0000000000
     19178       154  23SM      H21G           15.9812878005       30.5040473923        0.5979705673  MEMB      154             0.0000000000
     19179       154  23SM      C22F           16.4194705001       32.0963774490       -0.6152541351  MEMB      154             0.0000000000
     19180       154  23SM      H22F           15.3981070526       32.5248976917       -0.5286061123  MEMB      154             0.0000000000
     19181       154  23SM      H22G           16.6648691066       32.5201984670       -1.6124894369  MEMB      154             0.0000000000
     19182       154  23SM      C23F           17.2971550127       32.7542219364        0.4521620998  MEMB      154             0.0000000000
     19183       154  23SM      H23F           17.3278150786       33.8350211577        0.1967123673  MEMB      154             0.0000000000
     19184       154  23SM      H23G           18.2557547181       32.2406888762        0.6795205577  MEMB      154             0.0000000000
     19185       154  23SM      H23H           16.7055760153       32.8859229380        1.3832962148  MEMB      154             0.0000000000
     19186       155  CHL1      C3             -0.2399234652       32.6362305696      -17.2990400000  MEMB      155             0.0000000000
     19187       155  CHL1      H3             -0.5870636190       33.6183449652      -16.9126800000  MEMB      155             0.0000000000
     19188       155  CHL1      O3             -0.2658056788       32.5529872304      -18.7009600000  MEMB      155             0.0000000000
     19189       155  CHL1      H3'            -1.1950429013       32.6817276299      -18.9047800000  MEMB      155             0.0000000000
     19190       155  CHL1      C4              1.2098943505       32.4723891533      -16.8330300000  MEMB      155             0.0000000000
     19191       155  CHL1      H4A             1.6414038749       31.5307561338      -17.2348300000  MEMB      155             0.0000000000
     19192       155  CHL1      H4B             1.8410803636       33.3235051147      -17.1669900000  MEMB      155             0.0000000000
     19193       155  CHL1      C5              1.2415579792       32.4599613169      -15.3174000000  MEMB      155             0.0000000000
     19194       155  CHL1      C6              2.1864706414       33.1477115399      -14.6345700000  MEMB      155             0.0000000000
     19195       155  CHL1      H6              2.9662405319       33.6625145718      -15.2150300000  MEMB      155             0.0000000000
     19196       155  CHL1      C7              2.3547591941       33.1910915804      -13.1067500000  MEMB      155             0.0000000000
     19197       155  CHL1      H7A             3.4180486157       33.0875454662      -12.8017800000  MEMB      155             0.0000000000
     19198       155  CHL1      H7B             2.1536124610       34.2001912737      -12.6877400000  MEMB      155             0.0000000000
     19199       155  CHL1      C8              1.4867994096       32.1382595282      -12.4051200000  MEMB      155             0.0000000000
     19200       155  CHL1      H8              2.0462549745       31.1847012248      -12.5149600000  MEMB      155             0.0000000000
     19201       155  CHL1      C14             1.2951031189       32.6092609663      -10.9363800000  MEMB      155             0.0000000000
     19202       155  CHL1      H14             0.6337916925       33.4999727011      -10.8762600000  MEMB      155             0.0000000000
     19203       155  CHL1      C15             2.5792949668       32.9410025576      -10.2237000000  MEMB      155             0.0000000000
     19204       155  CHL1      H15A            3.3448850743       32.1794526080      -10.4849100000  MEMB      155             0.0000000000
     19205       155  CHL1      H15B            3.0074406372       33.9334289548      -10.4808000000  MEMB      155             0.0000000000
     19206       155  CHL1      C16             2.2134841502       32.7751050681       -8.7688700000  MEMB      155             0.0000000000
     19207       155  CHL1      H16A            2.9504225357       32.2697292102       -8.1086900000  MEMB      155             0.0000000000
     19208       155  CHL1      H16B            2.2559168312       33.7394144650       -8.2187600000  MEMB      155             0.0000000000
     19209       155  CHL1      C17             0.7760149906       32.1897186365       -8.7075600000  MEMB      155             0.0000000000
     19210       155  CHL1      H17             0.0538849552       33.0178573196       -8.8720100000  MEMB      155             0.0000000000
     19211       155  CHL1      C13             0.5568417690       31.5124959637      -10.0615700000  MEMB      155             0.0000000000
     19212       155  CHL1      C18             1.3947535636       30.1689867169       -9.9539600000  MEMB      155             0.0000000000
     19213       155  CHL1      H18A            1.6339871438       29.6751462901      -10.9199900000  MEMB      155             0.0000000000
     19214       155  CHL1      H18B            2.3623883777       30.3053503203       -9.4253800000  MEMB      155             0.0000000000
     19215       155  CHL1      H18C            0.7401375893       29.5162633335       -9.3377200000  MEMB      155             0.0000000000
     19216       155  CHL1      C12            -0.8270710616       31.3217783341      -10.6986900000  MEMB      155             0.0000000000
     19217       155  CHL1      H12A           -1.5415765118       30.6442153154      -10.1842000000  MEMB      155             0.0000000000
     19218       155  CHL1      H12B           -1.4177348748       32.2541370681      -10.5715800000  MEMB      155             0.0000000000
     19219       155  CHL1      C11            -0.7588368093       30.9542568999      -12.1805700000  MEMB      155             0.0000000000
     19220       155  CHL1      H11A           -0.3506394619       29.9241006349      -12.1001500000  MEMB      155             0.0000000000
     19221       155  CHL1      H11B           -1.7477216438       30.9709410418      -12.6866800000  MEMB      155             0.0000000000
     19222       155  CHL1      C9              0.1403803303       31.9297936705      -13.0537600000  MEMB      155             0.0000000000
     19223       155  CHL1      H9             -0.4131840992       32.8885812208      -12.9610200000  MEMB      155             0.0000000000
     19224       155  CHL1      C10             0.1631461021       31.6464096820      -14.5848900000  MEMB      155             0.0000000000
     19225       155  CHL1      C19             0.5609560082       30.1974744194      -14.7164700000  MEMB      155             0.0000000000
     19226       155  CHL1      H19A           -0.3085265140       29.5313627289      -14.5304500000  MEMB      155             0.0000000000
     19227       155  CHL1      H19B            0.8225222349       29.9969801632      -15.7774600000  MEMB      155             0.0000000000
     19228       155  CHL1      H19C            1.3465898133       29.7629032096      -14.0620500000  MEMB      155             0.0000000000
     19229       155  CHL1      C1             -1.2303737998       31.7221834389      -15.2138400000  MEMB      155             0.0000000000
     19230       155  CHL1      H1A            -1.9039956231       30.8918751593      -14.9119500000  MEMB      155             0.0000000000
     19231       155  CHL1      H1B            -1.7077350592       32.6928491056      -14.9603500000  MEMB      155             0.0000000000
     19232       155  CHL1      C2             -1.2084839754       31.5676491370      -16.7683900000  MEMB      155             0.0000000000
     19233       155  CHL1      H2A            -2.2360537708       31.6030955683      -17.1892900000  MEMB      155             0.0000000000
     19234       155  CHL1      H2B            -0.7508277927       30.6014753360      -17.0706900000  MEMB      155             0.0000000000
     19235       155  CHL1      C20             0.3035206128       31.3169846258       -7.3746900000  MEMB      155             0.0000000000
     19236       155  CHL1      H20             0.9897635002       30.4466359545       -7.2979100000  MEMB      155             0.0000000000
     19237       155  CHL1      C21            -1.1753514174       30.9524647623       -7.4277800000  MEMB      155             0.0000000000
     19238       155  CHL1      H21A           -1.5205808660       30.6628766273       -6.4122600000  MEMB      155             0.0000000000
     19239       155  CHL1      H21B           -1.3524636143       30.0991086213       -8.1168000000  MEMB      155             0.0000000000
     19240       155  CHL1      H21C           -1.8020210522       31.8068231963       -7.7619800000  MEMB      155             0.0000000000
     19241       155  CHL1      C22             0.5740442963       32.0486274435       -6.0682200000  MEMB      155             0.0000000000
     19242       155  CHL1      H22A            0.4434060273       31.3300161155       -5.2310600000  MEMB      155             0.0000000000
     19243       155  CHL1      H22B            1.5686458097       32.5405944360       -6.0129300000  MEMB      155             0.0000000000
     19244       155  CHL1      C23            -0.3332997884       33.2230477773       -5.7445000000  MEMB      155             0.0000000000
     19245       155  CHL1      H23A           -0.5261003863       33.8418570044       -6.6468400000  MEMB      155             0.0000000000
     19246       155  CHL1      H23B           -1.2837778152       32.8760331992       -5.2857100000  MEMB      155             0.0000000000
     19247       155  CHL1      C24             0.2371017033       34.2476219182       -4.6758400000  MEMB      155             0.0000000000
     19248       155  CHL1      H24A            1.1268320032       34.7573390427       -5.1034800000  MEMB      155             0.0000000000
     19249       155  CHL1      H24B           -0.5529646129       35.0266016931       -4.6183800000  MEMB      155             0.0000000000
     19250       155  CHL1      C25             0.5224806655       33.7257989734       -3.2827500000  MEMB      155             0.0000000000
     19251       155  CHL1      H25             1.2778072278       32.9325032739       -3.4684500000  MEMB      155             0.0000000000
     19252       155  CHL1      C26             1.3948625748       34.7306905019       -2.4481800000  MEMB      155             0.0000000000
     19253       155  CHL1      H26A            1.6422589212       34.3150540011       -1.4480000000  MEMB      155             0.0000000000
     19254       155  CHL1      H26B            2.3696331516       34.8664168538       -2.9636600000  MEMB      155             0.0000000000
     19255       155  CHL1      H26C            0.8920843975       35.7214093250       -2.4481500000  MEMB      155             0.0000000000
     19256       155  CHL1      C27            -0.6085259608       33.2640230005       -2.4079700000  MEMB      155             0.0000000000
     19257       155  CHL1      H27A           -1.1232249554       32.3528534005       -2.7810500000  MEMB      155             0.0000000000
     19258       155  CHL1      H27B           -0.2504674506       32.9845113410       -1.3940800000  MEMB      155             0.0000000000
     19259       155  CHL1      H27C           -1.3809602909       34.0582747225       -2.3252900000  MEMB      155             0.0000000000
     19260       156  CHL1      C3            -29.6151607725      -13.9663187457      -17.3277200000  MEMB      156             0.0000000000
     19261       156  CHL1      H3            -28.9243632534      -14.8279839235      -17.2066300000  MEMB      156             0.0000000000
     19262       156  CHL1      O3            -29.9853924275      -13.7730356543      -18.6722800000  MEMB      156             0.0000000000
     19263       156  CHL1      H3'           -29.3164345832      -13.8179523047      -19.3593600000  MEMB      156             0.0000000000
     19264       156  CHL1      C4            -30.8590256264      -14.3246766851      -16.5077600000  MEMB      156             0.0000000000
     19265       156  CHL1      H4A           -31.6268537220      -13.5247479024      -16.5777400000  MEMB      156             0.0000000000
     19266       156  CHL1      H4B           -31.3292252309      -15.2735586621      -16.8437000000  MEMB      156             0.0000000000
     19267       156  CHL1      C5            -30.5740451992      -14.6333918268      -15.1276000000  MEMB      156             0.0000000000
     19268       156  CHL1      C6            -31.0057096100      -15.7453970743      -14.5137600000  MEMB      156             0.0000000000
     19269       156  CHL1      H6            -31.5804664200      -16.4684230362      -15.1111500000  MEMB      156             0.0000000000
     19270       156  CHL1      C7            -30.7995085242      -16.1130019603      -13.0757000000  MEMB      156             0.0000000000
     19271       156  CHL1      H7A           -31.6575403445      -16.6246836331      -12.5896100000  MEMB      156             0.0000000000
     19272       156  CHL1      H7B           -29.9849822397      -16.8684736754      -13.0642700000  MEMB      156             0.0000000000
     19273       156  CHL1      C8            -30.3844633984      -14.8891057969      -12.3120000000  MEMB      156             0.0000000000
     19274       156  CHL1      H8            -31.3333298531      -14.3508239615      -12.1016700000  MEMB      156             0.0000000000
     19275       156  CHL1      C14           -29.6611522401      -15.2774722284      -10.9623700000  MEMB      156             0.0000000000
     19276       156  CHL1      H14           -28.6976797794      -15.7797628330      -11.1941900000  MEMB      156             0.0000000000
     19277       156  CHL1      C15           -30.4696172699      -16.2136227153      -10.0223400000  MEMB      156             0.0000000000
     19278       156  CHL1      H15A          -31.5672019865      -16.0438321710       -9.9943000000  MEMB      156             0.0000000000
     19279       156  CHL1      H15B          -30.4002344244      -17.3163136352      -10.1388800000  MEMB      156             0.0000000000
     19280       156  CHL1      C16           -29.8537812768      -15.9108415262       -8.6689400000  MEMB      156             0.0000000000
     19281       156  CHL1      H16A          -30.6510496850      -15.8464069949       -7.8978900000  MEMB      156             0.0000000000
     19282       156  CHL1      H16B          -29.0716019073      -16.6678940283       -8.4466900000  MEMB      156             0.0000000000
     19283       156  CHL1      C17           -28.9216375129      -14.7179940833       -8.8320300000  MEMB      156             0.0000000000
     19284       156  CHL1      H17           -27.8859087347      -15.0886748347       -8.9875800000  MEMB      156             0.0000000000
     19285       156  CHL1      C13           -29.3409793757      -14.0586533570      -10.1706400000  MEMB      156             0.0000000000
     19286       156  CHL1      C18           -30.5598103568      -13.2144374444       -9.8042300000  MEMB      156             0.0000000000
     19287       156  CHL1      H18A          -31.2081708338      -13.7391589041       -9.0703200000  MEMB      156             0.0000000000
     19288       156  CHL1      H18B          -30.1942869099      -12.3094362208       -9.2734900000  MEMB      156             0.0000000000
     19289       156  CHL1      H18C          -31.1569790692      -12.8674361560      -10.6744600000  MEMB      156             0.0000000000
     19290       156  CHL1      C12           -28.2477089715      -13.3158731088      -10.9029100000  MEMB      156             0.0000000000
     19291       156  CHL1      H12A          -27.9405701918      -12.3698980712      -10.4078200000  MEMB      156             0.0000000000
     19292       156  CHL1      H12B          -27.4761773389      -14.0711268614      -11.1649100000  MEMB      156             0.0000000000
     19293       156  CHL1      C11           -28.7481865803      -12.8833665680      -12.2259800000  MEMB      156             0.0000000000
     19294       156  CHL1      H11A          -29.5329374318      -12.1137016720      -12.0644200000  MEMB      156             0.0000000000
     19295       156  CHL1      H11B          -27.9435632929      -12.3114914119      -12.7357500000  MEMB      156             0.0000000000
     19296       156  CHL1      C9            -29.3454770776      -13.9990216768      -13.0496700000  MEMB      156             0.0000000000
     19297       156  CHL1      H9            -28.4989509707      -14.7067364420      -13.1794400000  MEMB      156             0.0000000000
     19298       156  CHL1      C10           -29.8472808276      -13.4972370626      -14.4048500000  MEMB      156             0.0000000000
     19299       156  CHL1      C19           -31.0007121136      -12.4217450617      -14.2313700000  MEMB      156             0.0000000000
     19300       156  CHL1      H19A          -31.6674912623      -12.9203784353      -13.4957800000  MEMB      156             0.0000000000
     19301       156  CHL1      H19B          -30.6576821941      -11.4752246940      -13.7615400000  MEMB      156             0.0000000000
     19302       156  CHL1      H19C          -31.4401676588      -12.0349648016      -15.1756100000  MEMB      156             0.0000000000
     19303       156  CHL1      C1            -28.6595427378      -12.9721581937      -15.2142100000  MEMB      156             0.0000000000
     19304       156  CHL1      H1A           -28.3198891583      -12.0023134433      -14.7918900000  MEMB      156             0.0000000000
     19305       156  CHL1      H1B           -27.7930786756      -13.6590205264      -15.1057400000  MEMB      156             0.0000000000
     19306       156  CHL1      C2            -28.8821992718      -12.7431939493      -16.7635500000  MEMB      156             0.0000000000
     19307       156  CHL1      H2A           -27.9535802774      -12.5378145438      -17.3378500000  MEMB      156             0.0000000000
     19308       156  CHL1      H2B           -29.5343759018      -11.8493237499      -16.8633900000  MEMB      156             0.0000000000
     19309       156  CHL1      C20           -28.7805243099      -13.8794543810       -7.4917400000  MEMB      156             0.0000000000
     19310       156  CHL1      H20           -29.7896030252      -13.4473310789       -7.3204000000  MEMB      156             0.0000000000
     19311       156  CHL1      C21           -27.7580871892      -12.7656698638       -7.6460000000  MEMB      156             0.0000000000
     19312       156  CHL1      H21A          -27.9017682646      -12.0408637516       -6.8163500000  MEMB      156             0.0000000000
     19313       156  CHL1      H21B          -28.0693418795      -12.2345421712       -8.5708400000  MEMB      156             0.0000000000
     19314       156  CHL1      H21C          -26.6925945705      -13.0694879178       -7.7280700000  MEMB      156             0.0000000000
     19315       156  CHL1      C22           -28.5946989484      -14.8212504830       -6.2202300000  MEMB      156             0.0000000000
     19316       156  CHL1      H22A          -29.5023790832      -15.4617799981       -6.2329200000  MEMB      156             0.0000000000
     19317       156  CHL1      H22B          -27.6879613550      -15.4086532949       -6.4792900000  MEMB      156             0.0000000000
     19318       156  CHL1      C23           -28.2848954554      -14.0240917405       -4.9379300000  MEMB      156             0.0000000000
     19319       156  CHL1      H23A          -27.2575332234      -13.6071524625       -5.0086200000  MEMB      156             0.0000000000
     19320       156  CHL1      H23B          -29.0422951839      -13.2114524559       -4.9205000000  MEMB      156             0.0000000000
     19321       156  CHL1      C24           -28.3906256119      -14.8850033364       -3.7092500000  MEMB      156             0.0000000000
     19322       156  CHL1      H24A          -29.4079746472      -15.2939049845       -3.5300400000  MEMB      156             0.0000000000
     19323       156  CHL1      H24B          -27.6497584594      -15.7116007738       -3.7560000000  MEMB      156             0.0000000000
     19324       156  CHL1      C25           -27.9678904132      -14.1229388164       -2.3311300000  MEMB      156             0.0000000000
     19325       156  CHL1      H25           -28.2302750319      -14.8153997683       -1.5028900000  MEMB      156             0.0000000000
     19326       156  CHL1      C26           -26.5155014365      -13.8269765641       -1.9975200000  MEMB      156             0.0000000000
     19327       156  CHL1      H26A          -26.3304261874      -13.0831280361       -1.1933100000  MEMB      156             0.0000000000
     19328       156  CHL1      H26B          -25.9656583130      -14.7588188381       -1.7451700000  MEMB      156             0.0000000000
     19329       156  CHL1      H26C          -25.9511102736      -13.4906188352       -2.8934300000  MEMB      156             0.0000000000
     19330       156  CHL1      C27           -28.7580751767      -12.8845840091       -2.1031800000  MEMB      156             0.0000000000
     19331       156  CHL1      H27A          -28.5304436076      -12.1856516323       -2.9362300000  MEMB      156             0.0000000000
     19332       156  CHL1      H27B          -29.8664779031      -12.9353697751       -2.1596500000  MEMB      156             0.0000000000
     19333       156  CHL1      H27C          -28.4480485425      -12.4619094623       -1.1236100000  MEMB      156             0.0000000000
     19334       157  DOPE      N              25.7154537415      -20.5384138950      -21.9511522531  MEMB      157             0.0000000000
     19335       157  DOPE      HN1            24.7254364942      -20.7980391921      -22.1357069965  MEMB      157             0.0000000000
     19336       157  DOPE      HN2            25.6759088532      -19.5701260070      -21.5737205062  MEMB      157             0.0000000000
     19337       157  DOPE      HN3            26.4583251554      -20.5985736469      -22.6764958836  MEMB      157             0.0000000000
     19338       157  DOPE      C12            26.1678292657      -21.5132929355      -20.8199856337  MEMB      157             0.0000000000
     19339       157  DOPE      H12A           26.6220875792      -22.3614540923      -21.3754973269  MEMB      157             0.0000000000
     19340       157  DOPE      H12B           25.2111023920      -21.7214149598      -20.2949333722  MEMB      157             0.0000000000
     19341       157  DOPE      C11            27.1620120001      -20.8853539679      -19.9102591721  MEMB      157             0.0000000000
     19342       157  DOPE      H11A           28.0899241903      -20.7209681021      -20.4987123620  MEMB      157             0.0000000000
     19343       157  DOPE      H11B           27.4020049271      -21.6447712332      -19.1356561608  MEMB      157             0.0000000000
     19344       157  DOPE      P              26.1156561299      -19.7165613615      -17.8404502381  MEMB      157             0.0000000000
     19345       157  DOPE      O13            24.9337338439      -20.6770610079      -17.9216551062  MEMB      157             0.0000000000
     19346       157  DOPE      O14            25.7709301912      -18.3837047509      -17.2720828359  MEMB      157             0.0000000000
     19347       157  DOPE      O11            27.3074425001      -20.4123116055      -16.9952250353  MEMB      157             0.0000000000
     19348       157  DOPE      O12            26.7832839079      -19.6431548709      -19.2891897282  MEMB      157             0.0000000000
     19349       157  DOPE      C1             28.5738264263      -19.6711818851      -17.0855134274  MEMB      157             0.0000000000
     19350       157  DOPE      HA             28.5372852389      -18.5960948274      -17.3633144366  MEMB      157             0.0000000000
     19351       157  DOPE      HB             29.1963709149      -20.1102741422      -17.8941899087  MEMB      157             0.0000000000
     19352       157  DOPE      C2             29.3677590847      -19.9605040251      -15.7901831914  MEMB      157             0.0000000000
     19353       157  DOPE      HS             30.4287769210      -19.8492035053      -16.1003029248  MEMB      157             0.0000000000
     19354       157  DOPE      O21            29.1893765674      -21.2990663879      -15.3971066098  MEMB      157             0.0000000000
     19355       157  DOPE      C21            29.2694371098      -22.3605069157      -16.2136788118  MEMB      157             0.0000000000
     19356       157  DOPE      O22            29.7262563562      -22.2732730189      -17.3104411639  MEMB      157             0.0000000000
     19357       157  DOPE      C22            28.4699532641      -23.5038293617      -15.4622429580  MEMB      157             0.0000000000
     19358       157  DOPE      H2R            28.6102429652      -23.4575660544      -14.3611074349  MEMB      157             0.0000000000
     19359       157  DOPE      H2S            28.9640222203      -24.4434406616      -15.7898826799  MEMB      157             0.0000000000
     19360       157  DOPE      C3             28.9606086635      -18.9491135242      -14.7065583543  MEMB      157             0.0000000000
     19361       157  DOPE      HX             29.2244832100      -17.9881754841      -15.1977704429  MEMB      157             0.0000000000
     19362       157  DOPE      HY             29.6426156450      -19.1366438554      -13.8498087166  MEMB      157             0.0000000000
     19363       157  DOPE      O31            27.5938339376      -18.7837757155      -14.4502986666  MEMB      157             0.0000000000
     19364       157  DOPE      C31            27.1124887901      -19.2830156240      -13.3640670131  MEMB      157             0.0000000000
     19365       157  DOPE      O32            27.7381829928      -19.8654906998      -12.5233593995  MEMB      157             0.0000000000
     19366       157  DOPE      C32            25.6463095130      -18.9861342350      -13.3051502521  MEMB      157             0.0000000000
     19367       157  DOPE      H2X            25.4063645120      -18.1133609474      -13.9493661561  MEMB      157             0.0000000000
     19368       157  DOPE      H2Y            25.0756282573      -19.9020303566      -13.5693060611  MEMB      157             0.0000000000
     19369       157  DOPE      C23            26.9380850452      -23.4534185916      -15.6422155791  MEMB      157             0.0000000000
     19370       157  DOPE      H3R            26.7643334031      -23.5318099057      -16.7367411737  MEMB      157             0.0000000000
     19371       157  DOPE      H3S            26.7077930642      -22.4566090120      -15.2090217028  MEMB      157             0.0000000000
     19372       157  DOPE      C24            26.3117532237      -24.6844769560      -14.9068267144  MEMB      157             0.0000000000
     19373       157  DOPE      H4R            26.4833745188      -25.6678967881      -15.3944254754  MEMB      157             0.0000000000
     19374       157  DOPE      H4S            25.2408727092      -24.6030034526      -15.1912517247  MEMB      157             0.0000000000
     19375       157  DOPE      C25            26.5059737520      -24.8431461623      -13.3279943065  MEMB      157             0.0000000000
     19376       157  DOPE      H5R            27.6086680828      -24.9442895024      -13.2376828206  MEMB      157             0.0000000000
     19377       157  DOPE      H5S            26.0854529040      -25.7890650726      -12.9246074180  MEMB      157             0.0000000000
     19378       157  DOPE      C26            26.0108813653      -23.6331486921      -12.4898474165  MEMB      157             0.0000000000
     19379       157  DOPE      H6R            24.9369800187      -23.4441864015      -12.7028030472  MEMB      157             0.0000000000
     19380       157  DOPE      H6S            26.6626926166      -22.7994934534      -12.8281991280  MEMB      157             0.0000000000
     19381       157  DOPE      C27            26.0491074635      -23.7506188744      -10.9471109362  MEMB      157             0.0000000000
     19382       157  DOPE      H7R            25.4435534094      -24.6005656521      -10.5660389030  MEMB      157             0.0000000000
     19383       157  DOPE      H7S            25.6551726606      -22.8368773671      -10.4529316080  MEMB      157             0.0000000000
     19384       157  DOPE      C28            27.4937871957      -23.9831046725      -10.4379220599  MEMB      157             0.0000000000
     19385       157  DOPE      H8R            28.0549007730      -24.7944372359      -10.9490117040  MEMB      157             0.0000000000
     19386       157  DOPE      H8S            27.4561907723      -24.4318844675       -9.4222923431  MEMB      157             0.0000000000
     19387       157  DOPE      C29            28.3137604237      -22.7377083647      -10.3910492611  MEMB      157             0.0000000000
     19388       157  DOPE      H9R            28.4021311156      -22.1808951050      -11.3355859584  MEMB      157             0.0000000000
     19389       157  DOPE      C210           28.9783403137      -22.2530386206       -9.3381075419  MEMB      157             0.0000000000
     19390       157  DOPE      H10R           29.5494343829      -21.3179523425       -9.4353962716  MEMB      157             0.0000000000
     19391       157  DOPE      C211           29.0736114061      -22.7741619208       -7.9280758774  MEMB      157             0.0000000000
     19392       157  DOPE      H11R           30.1021522274      -22.6817781062       -7.5183327659  MEMB      157             0.0000000000
     19393       157  DOPE      H11S           28.6934675591      -23.8180538304       -7.9381351837  MEMB      157             0.0000000000
     19394       157  DOPE      C212           28.1827513068      -21.9653758136       -6.9509340972  MEMB      157             0.0000000000
     19395       157  DOPE      H12R           28.3804877422      -22.4657826578       -5.9789191072  MEMB      157             0.0000000000
     19396       157  DOPE      H12S           27.0961821839      -22.0132491804       -7.1776428175  MEMB      157             0.0000000000
     19397       157  DOPE      C213           28.6071445673      -20.5012274343       -6.8421904762  MEMB      157             0.0000000000
     19398       157  DOPE      H13R           28.0990747865      -19.9971790951       -7.6919678275  MEMB      157             0.0000000000
     19399       157  DOPE      H13S           29.7091305268      -20.3885634939       -6.9273663669  MEMB      157             0.0000000000
     19400       157  DOPE      C214           28.3164518868      -19.7613306298       -5.5674654688  MEMB      157             0.0000000000
     19401       157  DOPE      H14R           27.2280758628      -19.5648892008       -5.4617784605  MEMB      157             0.0000000000
     19402       157  DOPE      H14S           28.9273671836      -18.8562797045       -5.7723701225  MEMB      157             0.0000000000
     19403       157  DOPE      C215           28.8457132569      -20.4280775815       -4.2162326120  MEMB      157             0.0000000000
     19404       157  DOPE      H15R           29.9346701252      -20.6280018458       -4.3085590593  MEMB      157             0.0000000000
     19405       157  DOPE      H15S           28.2210355110      -21.3176622286       -3.9865854522  MEMB      157             0.0000000000
     19406       157  DOPE      C216           28.7699684340      -19.3684196165       -3.0327310568  MEMB      157             0.0000000000
     19407       157  DOPE      H16R           27.6968654515      -19.0840044246       -2.9893848316  MEMB      157             0.0000000000
     19408       157  DOPE      H16S           29.3715535677      -18.4648732548       -3.2694176544  MEMB      157             0.0000000000
     19409       157  DOPE      C217           29.2013193908      -19.9827040130       -1.6898421525  MEMB      157             0.0000000000
     19410       157  DOPE      H17R           28.6086337781      -20.8786786634       -1.4065145344  MEMB      157             0.0000000000
     19411       157  DOPE      H17S           29.1571606608      -19.2184148893       -0.8847130898  MEMB      157             0.0000000000
     19412       157  DOPE      C218           30.6848045061      -20.3697933333       -1.7304803324  MEMB      157             0.0000000000
     19413       157  DOPE      H18R           30.8744568979      -21.2666650783       -2.3581525572  MEMB      157             0.0000000000
     19414       157  DOPE      H18S           31.0612526650      -20.5941020828       -0.7095519401  MEMB      157             0.0000000000
     19415       157  DOPE      H18T           31.2900084306      -19.5790599027       -2.2232158211  MEMB      157             0.0000000000
     19416       157  DOPE      C33            25.2940389895      -18.7764315119      -11.8457533123  MEMB      157             0.0000000000
     19417       157  DOPE      H3X            24.2984803888      -18.2896465699      -11.7668570747  MEMB      157             0.0000000000
     19418       157  DOPE      H3Y            25.9846373389      -18.1386984139      -11.2535610081  MEMB      157             0.0000000000
     19419       157  DOPE      C34            25.1981921305      -20.0157930325      -10.9443765227  MEMB      157             0.0000000000
     19420       157  DOPE      H4X            24.2891608447      -20.5524363223      -11.2907822339  MEMB      157             0.0000000000
     19421       157  DOPE      H4Y            26.0201455172      -20.7584056958      -11.0294650168  MEMB      157             0.0000000000
     19422       157  DOPE      C35            24.9363355433      -19.5925211724       -9.4884209091  MEMB      157             0.0000000000
     19423       157  DOPE      H5X            24.1599935635      -18.8063020046       -9.3723463462  MEMB      157             0.0000000000
     19424       157  DOPE      H5Y            25.8765654867      -19.0821548065       -9.1887295774  MEMB      157             0.0000000000
     19425       157  DOPE      C36            24.7661294828      -20.7684150098       -8.4685174678  MEMB      157             0.0000000000
     19426       157  DOPE      H6X            24.8913048755      -20.2170911230       -7.5121209707  MEMB      157             0.0000000000
     19427       157  DOPE      H6Y            25.5177126881      -21.5866101036       -8.4677951451  MEMB      157             0.0000000000
     19428       157  DOPE      C37            23.4559959386      -21.4581556016       -8.5366106539  MEMB      157             0.0000000000
     19429       157  DOPE      H7X            22.6043882031      -20.7679855869       -8.3556383044  MEMB      157             0.0000000000
     19430       157  DOPE      H7Y            23.3871875571      -21.8691775726       -9.5664872950  MEMB      157             0.0000000000
     19431       157  DOPE      C38            23.2616879501      -22.5788975116       -7.4855383598  MEMB      157             0.0000000000
     19432       157  DOPE      H8X            22.1853429502      -22.8540408793       -7.4755984079  MEMB      157             0.0000000000
     19433       157  DOPE      H8Y            23.4504409883      -22.2131601187       -6.4535835710  MEMB      157             0.0000000000
     19434       157  DOPE      C39            24.1859281861      -23.8264319874       -7.7267598830  MEMB      157             0.0000000000
     19435       157  DOPE      H9X            24.4946043716      -23.9564207016       -8.7745299066  MEMB      157             0.0000000000
     19436       157  DOPE      C310           24.7786944197      -24.6236770103       -6.8025678297  MEMB      157             0.0000000000
     19437       157  DOPE      H10X           25.5275298036      -25.3764554009       -7.0899188857  MEMB      157             0.0000000000
     19438       157  DOPE      C311           24.6693160694      -24.5310923290       -5.2901818839  MEMB      157             0.0000000000
     19439       157  DOPE      H11X           23.6588849105      -24.2139477827       -4.9543715244  MEMB      157             0.0000000000
     19440       157  DOPE      H11Y           24.8713470196      -25.5564768060       -4.9132323695  MEMB      157             0.0000000000
     19441       157  DOPE      C312           25.5305472485      -23.4400634920       -4.6324234053  MEMB      157             0.0000000000
     19442       157  DOPE      H12X           25.3870289372      -22.4839149511       -5.1796928681  MEMB      157             0.0000000000
     19443       157  DOPE      H12Y           26.5943411353      -23.7595226783       -4.6571072725  MEMB      157             0.0000000000
     19444       157  DOPE      C313           25.0818577897      -23.2429065269       -3.1494586909  MEMB      157             0.0000000000
     19445       157  DOPE      H13X           23.9922188294      -23.0268469811       -3.1313980930  MEMB      157             0.0000000000
     19446       157  DOPE      H13Y           25.3592291263      -24.1916467845       -2.6422330083  MEMB      157             0.0000000000
     19447       157  DOPE      C314           25.7650600659      -22.0490038167       -2.5069583074  MEMB      157             0.0000000000
     19448       157  DOPE      H14X           26.7747898578      -22.0232162069       -2.9696691517  MEMB      157             0.0000000000
     19449       157  DOPE      H14Y           25.9614512826      -22.1845838266       -1.4218913347  MEMB      157             0.0000000000
     19450       157  DOPE      C315           24.8666153181      -20.8279090556       -2.5767701995  MEMB      157             0.0000000000
     19451       157  DOPE      H15X           24.4492481693      -20.7345887215       -3.6021574434  MEMB      157             0.0000000000
     19452       157  DOPE      H15Y           25.4936877945      -19.9107933918       -2.5768431071  MEMB      157             0.0000000000
     19453       157  DOPE      C316           23.7201729435      -20.6676859266       -1.6167055339  MEMB      157             0.0000000000
     19454       157  DOPE      H16X           23.8695765610      -21.1498019113       -0.6269765317  MEMB      157             0.0000000000
     19455       157  DOPE      H16Y           22.8154651400      -21.2709292293       -1.8445702695  MEMB      157             0.0000000000
     19456       157  DOPE      C317           23.3614560038      -19.1533022635       -1.3972376680  MEMB      157             0.0000000000
     19457       157  DOPE      H17X           23.0302123108      -19.0661395727       -0.3403563774  MEMB      157             0.0000000000
     19458       157  DOPE      H17Y           24.3471437001      -18.6525984375       -1.5069485579  MEMB      157             0.0000000000
     19459       157  DOPE      C318           22.3571237294      -18.6578962497       -2.3833652650  MEMB      157             0.0000000000
     19460       157  DOPE      H18X           21.5131522304      -19.3802085732       -2.4006271081  MEMB      157             0.0000000000
     19461       157  DOPE      H18Y           21.8875119486      -17.7263315601       -2.0013013731  MEMB      157             0.0000000000
     19462       157  DOPE      H18Z           22.7944520107      -18.4513563617       -3.3835679652  MEMB      157             0.0000000000
     19463       158  CHL1      C3             30.7949247971      -13.4588102531      -17.3767800000  MEMB      158             0.0000000000
     19464       158  CHL1      H3             31.6058553323      -14.2146533449      -17.4504500000  MEMB      158             0.0000000000
     19465       158  CHL1      O3             30.2032014029      -13.1188293469      -18.6232200000  MEMB      158             0.0000000000
     19466       158  CHL1      H3'            29.7211366673      -13.9088095843      -18.8784500000  MEMB      158             0.0000000000
     19467       158  CHL1      C4             29.6644719045      -14.0458620686      -16.5320400000  MEMB      158             0.0000000000
     19468       158  CHL1      H4A            28.8854699959      -13.2551340904      -16.5790100000  MEMB      158             0.0000000000
     19469       158  CHL1      H4B            29.2327790534      -14.9549148538      -17.0027600000  MEMB      158             0.0000000000
     19470       158  CHL1      C5             30.1468640985      -14.2704206473      -15.0986400000  MEMB      158             0.0000000000
     19471       158  CHL1      C6             30.1438713710      -15.5257238086      -14.5681800000  MEMB      158             0.0000000000
     19472       158  CHL1      H6             29.8135295296      -16.3688088128      -15.1927400000  MEMB      158             0.0000000000
     19473       158  CHL1      C7             30.6759801159      -15.8411806021      -13.1715800000  MEMB      158             0.0000000000
     19474       158  CHL1      H7A            30.1822913501      -16.6298023022      -12.5644000000  MEMB      158             0.0000000000
     19475       158  CHL1      H7B            31.7524990970      -16.0718992814      -13.3206100000  MEMB      158             0.0000000000
     19476       158  CHL1      C8             30.7569383693      -14.5228380803      -12.4003300000  MEMB      158             0.0000000000
     19477       158  CHL1      H8             29.6869414515      -14.2555865351      -12.2661900000  MEMB      158             0.0000000000
     19478       158  CHL1      C14            31.4849107839      -14.6848482223      -11.1066800000  MEMB      158             0.0000000000
     19479       158  CHL1      H14            32.5604850565      -14.8148334288      -11.3527600000  MEMB      158             0.0000000000
     19480       158  CHL1      C15            31.1940587109      -15.9622110688      -10.3212500000  MEMB      158             0.0000000000
     19481       158  CHL1      H15A           30.1237256921      -16.2197243966      -10.1716100000  MEMB      158             0.0000000000
     19482       158  CHL1      H15B           31.7437709586      -16.7622209607      -10.8617300000  MEMB      158             0.0000000000
     19483       158  CHL1      C16            31.6299410352      -15.6291413962       -8.9265400000  MEMB      158             0.0000000000
     19484       158  CHL1      H16A           30.7068507505      -15.6637298326       -8.3092600000  MEMB      158             0.0000000000
     19485       158  CHL1      H16B           32.3095542140      -16.4453095962       -8.6004500000  MEMB      158             0.0000000000
     19486       158  CHL1      C17            32.0680705407      -14.1406348338       -8.9733800000  MEMB      158             0.0000000000
     19487       158  CHL1      H17            33.1628706977      -14.1200684416       -9.1612800000  MEMB      158             0.0000000000
     19488       158  CHL1      C13            31.4742406117      -13.5309558649      -10.1780800000  MEMB      158             0.0000000000
     19489       158  CHL1      C18            30.0528823916      -13.1044063473       -9.8972800000  MEMB      158             0.0000000000
     19490       158  CHL1      H18A           29.3735377917      -13.7968254686       -9.3556600000  MEMB      158             0.0000000000
     19491       158  CHL1      H18B           30.1141674367      -12.2408351960       -9.2010000000  MEMB      158             0.0000000000
     19492       158  CHL1      H18C           29.3678893162      -12.6904164933      -10.6678100000  MEMB      158             0.0000000000
     19493       158  CHL1      C12            32.2990209147      -12.4979215843      -10.8676700000  MEMB      158             0.0000000000
     19494       158  CHL1      H12A           32.4085951566      -11.5313424562      -10.3309900000  MEMB      158             0.0000000000
     19495       158  CHL1      H12B           33.3188003360      -12.9058129885      -11.0349600000  MEMB      158             0.0000000000
     19496       158  CHL1      C11            31.7356712585      -12.1712608243      -12.2739000000  MEMB      158             0.0000000000
     19497       158  CHL1      H11A           30.7457727466      -11.6994595144      -12.0954600000  MEMB      158             0.0000000000
     19498       158  CHL1      H11B           32.2799325416      -11.3759241340      -12.8266400000  MEMB      158             0.0000000000
     19499       158  CHL1      C9             31.4633288186      -13.4145884379      -13.1523600000  MEMB      158             0.0000000000
     19500       158  CHL1      H9             32.4581588035      -13.8266590432      -13.4259000000  MEMB      158             0.0000000000
     19501       158  CHL1      C10            30.7190936125      -13.0033612708      -14.4209600000  MEMB      158             0.0000000000
     19502       158  CHL1      C19            29.4694886651      -12.1725480492      -14.0899800000  MEMB      158             0.0000000000
     19503       158  CHL1      H19A           28.7720237386      -11.9828354206      -14.9337000000  MEMB      158             0.0000000000
     19504       158  CHL1      H19B           28.8697055061      -12.7028063026      -13.3196500000  MEMB      158             0.0000000000
     19505       158  CHL1      H19C           29.8426366839      -11.1887698178      -13.7332500000  MEMB      158             0.0000000000
     19506       158  CHL1      C1             31.7889272126      -12.2979397802      -15.3462900000  MEMB      158             0.0000000000
     19507       158  CHL1      H1A            32.1219640362      -11.3482805541      -14.8756000000  MEMB      158             0.0000000000
     19508       158  CHL1      H1B            32.7478057704      -12.8311555848      -15.5211100000  MEMB      158             0.0000000000
     19509       158  CHL1      C2             31.3140711019      -12.0519167484      -16.7874500000  MEMB      158             0.0000000000
     19510       158  CHL1      H2A            32.1305649531      -11.7099933955      -17.4588300000  MEMB      158             0.0000000000
     19511       158  CHL1      H2B            30.4470982832      -11.3616136251      -16.8658800000  MEMB      158             0.0000000000
     19512       158  CHL1      C20            31.9634745427      -13.4254808406       -7.6096700000  MEMB      158             0.0000000000
     19513       158  CHL1      H20            30.8804183691      -13.2323429637       -7.4547100000  MEMB      158             0.0000000000
     19514       158  CHL1      C21            32.7648350592      -12.1569300976       -7.5974300000  MEMB      158             0.0000000000
     19515       158  CHL1      H21A           32.8057053621      -11.6618250776       -6.6036900000  MEMB      158             0.0000000000
     19516       158  CHL1      H21B           32.3289718185      -11.4411327731       -8.3268000000  MEMB      158             0.0000000000
     19517       158  CHL1      H21C           33.8420983889      -12.2332289969       -7.8582000000  MEMB      158             0.0000000000
     19518       158  CHL1      C22            32.4280475860      -14.3316629208       -6.4131900000  MEMB      158             0.0000000000
     19519       158  CHL1      H22A           31.5691254461      -15.0351254165       -6.3718200000  MEMB      158             0.0000000000
     19520       158  CHL1      H22B           33.3538594958      -14.8947913479       -6.6583000000  MEMB      158             0.0000000000
     19521       158  CHL1      C23            32.6104336113      -13.7245944510       -5.0143300000  MEMB      158             0.0000000000
     19522       158  CHL1      H23A           33.4636679901      -13.0138488329       -5.0481100000  MEMB      158             0.0000000000
     19523       158  CHL1      H23B           31.6952348201      -13.1539126726       -4.7477500000  MEMB      158             0.0000000000
     19524       158  CHL1      C24            32.9723889845      -14.7855917072       -3.9749800000  MEMB      158             0.0000000000
     19525       158  CHL1      H24A           32.1588994987      -15.5416323403       -3.9438700000  MEMB      158             0.0000000000
     19526       158  CHL1      H24B           33.9484868370      -15.2339425608       -4.2587700000  MEMB      158             0.0000000000
     19527       158  CHL1      C25            33.0177477928      -14.2508498492       -2.5558000000  MEMB      158             0.0000000000
     19528       158  CHL1      H25            33.3672766253      -13.1981322021       -2.4929100000  MEMB      158             0.0000000000
     19529       158  CHL1      C26            31.6662611095      -14.0741409167       -1.9324200000  MEMB      158             0.0000000000
     19530       158  CHL1      H26A           31.6464494988      -14.0431087610       -0.8220300000  MEMB      158             0.0000000000
     19531       158  CHL1      H26B           31.0163575534      -13.3021789021       -2.3971900000  MEMB      158             0.0000000000
     19532       158  CHL1      H26C           31.1213082040      -15.0289833795       -2.0924800000  MEMB      158             0.0000000000
     19533       158  CHL1      C27            33.8519208855      -15.1731982804       -1.6472800000  MEMB      158             0.0000000000
     19534       158  CHL1      H27A           33.7144886284      -14.8168047490       -0.6040100000  MEMB      158             0.0000000000
     19535       158  CHL1      H27B           33.4351130381      -16.2022754992       -1.6873000000  MEMB      158             0.0000000000
     19536       158  CHL1      H27C           34.9327120407      -15.0985338221       -1.8935300000  MEMB      158             0.0000000000
     19537       159  23SM      N             -26.7094041113      -21.0885021364      -28.2612667252  MEMB      159             0.0000000000
     19538       159  23SM      C15           -28.0305349002      -20.3479831055      -28.4389781846  MEMB      159             0.0000000000
     19539       159  23SM      H15A          -27.8021194134      -19.3061455009      -28.6086862102  MEMB      159             0.0000000000
     19540       159  23SM      H15B          -28.6193030773      -20.6254436898      -27.5771382291  MEMB      159             0.0000000000
     19541       159  23SM      H15C          -28.5786241864      -20.6748035445      -29.3102912791  MEMB      159             0.0000000000
     19542       159  23SM      C14           -26.9536272982      -22.6136524275      -28.3934381633  MEMB      159             0.0000000000
     19543       159  23SM      H14A          -25.9698054446      -23.0448969289      -28.2815335920  MEMB      159             0.0000000000
     19544       159  23SM      H14B          -27.1677263034      -22.7373368948      -29.4447534881  MEMB      159             0.0000000000
     19545       159  23SM      H14C          -27.6733869163      -22.8875895209      -27.6362694692  MEMB      159             0.0000000000
     19546       159  23SM      C13           -25.7184467973      -20.6436814420      -29.3867889262  MEMB      159             0.0000000000
     19547       159  23SM      H13A          -24.9201758378      -21.3615215519      -29.2690220017  MEMB      159             0.0000000000
     19548       159  23SM      H13B          -25.4400747800      -19.6237505337      -29.1662213486  MEMB      159             0.0000000000
     19549       159  23SM      H13C          -26.2062831208      -20.6965856666      -30.3488785729  MEMB      159             0.0000000000
     19550       159  23SM      C12           -26.0614517811      -20.8427392269      -26.9163292089  MEMB      159             0.0000000000
     19551       159  23SM      H12A          -26.1046564864      -19.7816673427      -26.7197083404  MEMB      159             0.0000000000
     19552       159  23SM      H12B          -25.0439393531      -21.1997747319      -26.9762797970  MEMB      159             0.0000000000
     19553       159  23SM      C11           -26.7066811557      -21.4317253808      -25.7413283759  MEMB      159             0.0000000000
     19554       159  23SM      H11A          -26.5403952856      -22.5159099035      -25.5646538648  MEMB      159             0.0000000000
     19555       159  23SM      H11B          -27.8139492538      -21.3457399179      -25.7710750540  MEMB      159             0.0000000000
     19556       159  23SM      P             -25.0309626804      -20.7339782087      -23.7749227546  MEMB      159             0.0000000000
     19557       159  23SM      O13           -23.8411362401      -20.7924381146      -24.6647359766  MEMB      159             0.0000000000
     19558       159  23SM      O14           -25.0403569206      -19.6628629748      -22.7304548729  MEMB      159             0.0000000000
     19559       159  23SM      O11           -25.2227268233      -22.1599663460      -23.1065213984  MEMB      159             0.0000000000
     19560       159  23SM      O12           -26.3950809171      -20.6653887500      -24.5852354136  MEMB      159             0.0000000000
     19561       159  23SM      C1S           -24.2911105903      -22.6095238404      -22.2227426497  MEMB      159             0.0000000000
     19562       159  23SM      H1S           -23.4470817365      -21.9177608365      -22.0144154293  MEMB      159             0.0000000000
     19563       159  23SM      H1T           -23.8489358842      -23.4888519851      -22.7380916430  MEMB      159             0.0000000000
     19564       159  23SM      NF            -24.0110972994      -23.1637778608      -19.7918785493  MEMB      159             0.0000000000
     19565       159  23SM      HNF           -23.9629193364      -24.1386263543      -19.5885113639  MEMB      159             0.0000000000
     19566       159  23SM      C2S           -24.9607299068      -22.9061415310      -20.8210844817  MEMB      159             0.0000000000
     19567       159  23SM      H2S           -25.5066908485      -21.9976243595      -20.4881517637  MEMB      159             0.0000000000
     19568       159  23SM      C3S           -25.9891916720      -24.0358042795      -20.7910874396  MEMB      159             0.0000000000
     19569       159  23SM      H3S           -25.3970281617      -24.9627944191      -20.9471409477  MEMB      159             0.0000000000
     19570       159  23SM      O3            -27.0122757157      -23.8181508855      -21.7822228111  MEMB      159             0.0000000000
     19571       159  23SM      HO3           -26.6965499691      -23.1605113916      -22.4062639605  MEMB      159             0.0000000000
     19572       159  23SM      C4S           -26.7182820161      -24.0149551030      -19.4711241402  MEMB      159             0.0000000000
     19573       159  23SM      H4S           -27.3293454662      -23.1285389779      -19.2455849749  MEMB      159             0.0000000000
     19574       159  23SM      C5S           -26.6981439559      -24.9645492807      -18.5862891575  MEMB      159             0.0000000000
     19575       159  23SM      H5S           -26.0570739127      -25.8577924227      -18.6201362701  MEMB      159             0.0000000000
     19576       159  23SM      C6S           -27.4407399305      -24.9649489647      -17.2764752729  MEMB      159             0.0000000000
     19577       159  23SM      H6S           -28.1269789314      -25.8254062380      -17.1247835012  MEMB      159             0.0000000000
     19578       159  23SM      H6T           -28.1464289774      -24.1085407109      -17.3302231127  MEMB      159             0.0000000000
     19579       159  23SM      C7S           -26.5651504871      -24.8168300831      -16.1114030496  MEMB      159             0.0000000000
     19580       159  23SM      H7S           -26.2516284538      -23.7512388885      -16.1346475348  MEMB      159             0.0000000000
     19581       159  23SM      H7T           -25.6858159959      -25.4916186857      -16.1872452795  MEMB      159             0.0000000000
     19582       159  23SM      C8S           -27.3357218570      -24.9330110731      -14.7835677817  MEMB      159             0.0000000000
     19583       159  23SM      H8S           -27.6417856735      -26.0007243784      -14.8087412263  MEMB      159             0.0000000000
     19584       159  23SM      H8T           -28.1724347008      -24.2293056405      -14.5860037446  MEMB      159             0.0000000000
     19585       159  23SM      C9S           -26.3215797987      -24.9095352858      -13.6479115163  MEMB      159             0.0000000000
     19586       159  23SM      H9S           -25.6200323554      -24.0541796316      -13.7504737200  MEMB      159             0.0000000000
     19587       159  23SM      H9T           -25.5911336622      -25.7366747195      -13.7767907752  MEMB      159             0.0000000000
     19588       159  23SM      C10S          -27.0578955358      -24.8850896544      -12.2740894813  MEMB      159             0.0000000000
     19589       159  23SM      H10S          -27.7367646136      -25.7636913393      -12.2351394010  MEMB      159             0.0000000000
     19590       159  23SM      H10T          -27.7118651429      -24.0101595792      -12.0712542892  MEMB      159             0.0000000000
     19591       159  23SM      C11S          -26.1623933065      -24.9874065551      -10.9803993546  MEMB      159             0.0000000000
     19592       159  23SM      H11S          -25.3436738199      -24.2364347826      -10.9881694999  MEMB      159             0.0000000000
     19593       159  23SM      H11T          -25.6701616144      -25.9806111619      -10.9057441294  MEMB      159             0.0000000000
     19594       159  23SM      C12S          -27.0129950484      -24.6979807312       -9.7755129505  MEMB      159             0.0000000000
     19595       159  23SM      H12S          -27.9582315108      -25.2785998174       -9.8365885412  MEMB      159             0.0000000000
     19596       159  23SM      H12T          -27.4408571944      -23.6729492908       -9.7517302700  MEMB      159             0.0000000000
     19597       159  23SM      C13S          -26.1580123163      -24.8535085168       -8.5154463238  MEMB      159             0.0000000000
     19598       159  23SM      H13S          -25.4011633296      -24.0425256030       -8.4537449484  MEMB      159             0.0000000000
     19599       159  23SM      H13T          -25.5270941574      -25.7659233938       -8.4541035553  MEMB      159             0.0000000000
     19600       159  23SM      C14S          -27.0181797473      -24.8821437198       -7.2251558787  MEMB      159             0.0000000000
     19601       159  23SM      H14S          -27.8528353177      -25.6130994069       -7.2832490243  MEMB      159             0.0000000000
     19602       159  23SM      H14T          -27.6313604600      -23.9594634316       -7.1415400064  MEMB      159             0.0000000000
     19603       159  23SM      C15S          -26.1488664162      -24.9285243291       -5.9332771994  MEMB      159             0.0000000000
     19604       159  23SM      H15S          -26.6752545888      -24.5286338513       -5.0403471254  MEMB      159             0.0000000000
     19605       159  23SM      H15T          -25.2591687374      -24.2657893169       -5.8737692841  MEMB      159             0.0000000000
     19606       159  23SM      C16S          -25.7220347742      -26.4043376400       -5.5079075510  MEMB      159             0.0000000000
     19607       159  23SM      H16S          -24.9713827486      -26.7921909395       -6.2293031172  MEMB      159             0.0000000000
     19608       159  23SM      H16T          -26.5767025496      -27.0885643053       -5.6968443046  MEMB      159             0.0000000000
     19609       159  23SM      C17S          -25.1069837746      -26.6655473710       -4.0851982478  MEMB      159             0.0000000000
     19610       159  23SM      H17S          -24.1751805701      -26.0627361959       -4.0334105854  MEMB      159             0.0000000000
     19611       159  23SM      H17T          -24.8853462213      -27.7395500259       -4.2632900251  MEMB      159             0.0000000000
     19612       159  23SM      C18S          -25.9794430949      -26.5113429743       -2.8284678494  MEMB      159             0.0000000000
     19613       159  23SM      H18S          -26.7512105122      -27.3093204943       -2.7845582150  MEMB      159             0.0000000000
     19614       159  23SM      H18T          -26.4775214064      -25.5214030230       -2.7493625008  MEMB      159             0.0000000000
     19615       159  23SM      H18U          -25.3288838025      -26.7012460009       -1.9481081847  MEMB      159             0.0000000000
     19616       159  23SM      C1F           -23.2407874742      -22.2757913003      -19.2430775552  MEMB      159             0.0000000000
     19617       159  23SM      OF            -23.2469608103      -21.0885324170      -19.5614215644  MEMB      159             0.0000000000
     19618       159  23SM      C2F           -22.3205551433      -22.6881495802      -18.1973848911  MEMB      159             0.0000000000
     19619       159  23SM      H2F           -21.9494419658      -21.8297702886      -17.5975677270  MEMB      159             0.0000000000
     19620       159  23SM      H2G           -21.4924144519      -23.2928621856      -18.6249669384  MEMB      159             0.0000000000
     19621       159  23SM      C3F           -22.8668769476      -23.6339343999      -17.0804313152  MEMB      159             0.0000000000
     19622       159  23SM      H3F           -23.0635005977      -24.6125892719      -17.5681766250  MEMB      159             0.0000000000
     19623       159  23SM      H3G           -23.7960987127      -23.2465873238      -16.6105059034  MEMB      159             0.0000000000
     19624       159  23SM      C4F           -21.7698921663      -23.8170267032      -15.9853393683  MEMB      159             0.0000000000
     19625       159  23SM      H4F           -21.5191759420      -22.8147099192      -15.5768991651  MEMB      159             0.0000000000
     19626       159  23SM      H4G           -20.8196955438      -24.1322689525      -16.4670755611  MEMB      159             0.0000000000
     19627       159  23SM      C5F           -22.1304051139      -24.8627995999      -14.8333560315  MEMB      159             0.0000000000
     19628       159  23SM      H5F           -22.0764377424      -25.8771354911      -15.2833909347  MEMB      159             0.0000000000
     19629       159  23SM      H5G           -23.1592222039      -24.7533533556      -14.4285377008  MEMB      159             0.0000000000
     19630       159  23SM      C6F           -21.1447152344      -24.8015403517      -13.6018176125  MEMB      159             0.0000000000
     19631       159  23SM      H6F           -21.1499946997      -23.8003562136      -13.1202334903  MEMB      159             0.0000000000
     19632       159  23SM      H6G           -20.0845336913      -24.9706916072      -13.8876917174  MEMB      159             0.0000000000
     19633       159  23SM      C7F           -21.6002979669      -25.8578461321      -12.6693641514  MEMB      159             0.0000000000
     19634       159  23SM      H7F           -22.0319789666      -26.7501344129      -13.1711555216  MEMB      159             0.0000000000
     19635       159  23SM      H7G           -22.4541318212      -25.4149099295      -12.1133999170  MEMB      159             0.0000000000
     19636       159  23SM      C8F           -20.5846481751      -26.2666096899      -11.6168950053  MEMB      159             0.0000000000
     19637       159  23SM      H8F           -20.0913839489      -25.3895821867      -11.1459024062  MEMB      159             0.0000000000
     19638       159  23SM      H8G           -19.7904388905      -26.9125255038      -12.0485725530  MEMB      159             0.0000000000
     19639       159  23SM      C9F           -21.0534522096      -26.9861958029      -10.3500442636  MEMB      159             0.0000000000
     19640       159  23SM      H9F           -20.1388491426      -27.2864677611       -9.7953750527  MEMB      159             0.0000000000
     19641       159  23SM      H9G           -21.5422180350      -27.9380276143      -10.6491180194  MEMB      159             0.0000000000
     19642       159  23SM      C10F          -22.1144923359      -26.2503869085       -9.4908117900  MEMB      159             0.0000000000
     19643       159  23SM      H10F          -23.1368497748      -26.5767605106       -9.7781902763  MEMB      159             0.0000000000
     19644       159  23SM      H10G          -22.0841726197      -25.1812750985       -9.7914794657  MEMB      159             0.0000000000
     19645       159  23SM      C11F          -21.8304157366      -26.2438508987       -7.9673787895  MEMB      159             0.0000000000
     19646       159  23SM      H11F          -21.2909321556      -27.1549837798       -7.6310533324  MEMB      159             0.0000000000
     19647       159  23SM      H11G          -22.7881004971      -26.2957842746       -7.4066081896  MEMB      159             0.0000000000
     19648       159  23SM      C12F          -21.0327220853      -25.0989773858       -7.4231942567  MEMB      159             0.0000000000
     19649       159  23SM      H12F          -20.1094166332      -25.1074699312       -8.0410583084  MEMB      159             0.0000000000
     19650       159  23SM      H12G          -20.7257053712      -25.4394225071       -6.4111859730  MEMB      159             0.0000000000
     19651       159  23SM      C13F          -21.7210099644      -23.7130623783       -7.3688215082  MEMB      159             0.0000000000
     19652       159  23SM      H13F          -22.6008706829      -23.7520581859       -6.6915874626  MEMB      159             0.0000000000
     19653       159  23SM      H13G          -22.1556124849      -23.5208302842       -8.3730553922  MEMB      159             0.0000000000
     19654       159  23SM      C14F          -20.8613556815      -22.5341330150       -6.8180091415  MEMB      159             0.0000000000
     19655       159  23SM      H14F          -19.9359703670      -22.4218854600       -7.4224783958  MEMB      159             0.0000000000
     19656       159  23SM      H14G          -20.4955806171      -22.9446858944       -5.8526202625  MEMB      159             0.0000000000
     19657       159  23SM      C15F          -21.5800459206      -21.1740761649       -6.6284858132  MEMB      159             0.0000000000
     19658       159  23SM      H15F          -22.0787708728      -21.0030621786       -7.6064153274  MEMB      159             0.0000000000
     19659       159  23SM      H15G          -20.7628565592      -20.4541323482       -6.4089320416  MEMB      159             0.0000000000
     19660       159  23SM      C16F          -22.6017098442      -21.0240476621       -5.5453850994  MEMB      159             0.0000000000
     19661       159  23SM      H16F          -23.3387868105      -21.8534306356       -5.6016224800  MEMB      159             0.0000000000
     19662       159  23SM      H16G          -23.1675987173      -20.1001386121       -5.7913194115  MEMB      159             0.0000000000
     19663       159  23SM      C17F          -22.0913450563      -20.9844711211       -4.1397658642  MEMB      159             0.0000000000
     19664       159  23SM      H17F          -21.6163842935      -19.9852119153       -4.0387007195  MEMB      159             0.0000000000
     19665       159  23SM      H17G          -21.4487508811      -21.8447258639       -3.8545362524  MEMB      159             0.0000000000
     19666       159  23SM      C18F          -23.2038160471      -21.0446184838       -3.0905121133  MEMB      159             0.0000000000
     19667       159  23SM      H18F          -22.7152987455      -21.4744678123       -2.1900108945  MEMB      159             0.0000000000
     19668       159  23SM      H18G          -23.8726798757      -21.8329162550       -3.4973643583  MEMB      159             0.0000000000
     19669       159  23SM      C19F          -23.8842763175      -19.7295877972       -2.6542307425  MEMB      159             0.0000000000
     19670       159  23SM      H19F          -24.5206677737      -19.3411198012       -3.4778935056  MEMB      159             0.0000000000
     19671       159  23SM      H19G          -23.0452434273      -19.0019065593       -2.6829527447  MEMB      159             0.0000000000
     19672       159  23SM      C20F          -24.7364031857      -19.6778607606       -1.3957565717  MEMB      159             0.0000000000
     19673       159  23SM      H20F          -25.6732236929      -20.2736801308       -1.3546779703  MEMB      159             0.0000000000
     19674       159  23SM      H20G          -25.0711260928      -18.6241420492       -1.2864004708  MEMB      159             0.0000000000
     19675       159  23SM      C21F          -24.0163163385      -20.0218732715       -0.0768523679  MEMB      159             0.0000000000
     19676       159  23SM      H21F          -23.4858270248      -19.0978481876        0.2379166687  MEMB      159             0.0000000000
     19677       159  23SM      H21G          -23.2080883794      -20.7422751703       -0.3260700736  MEMB      159             0.0000000000
     19678       159  23SM      C22F          -24.8980208336      -20.2077778680        1.0824474599  MEMB      159             0.0000000000
     19679       159  23SM      H22F          -25.3194773810      -21.2351261401        1.0470789321  MEMB      159             0.0000000000
     19680       159  23SM      H22G          -25.6046698602      -19.3509586593        1.0536527655  MEMB      159             0.0000000000
     19681       159  23SM      C23F          -24.1298336646      -20.2655166967        2.4005644999  MEMB      159             0.0000000000
     19682       159  23SM      H23F          -24.8761400674      -20.7107884538        3.0927209121  MEMB      159             0.0000000000
     19683       159  23SM      H23G          -23.9317843110      -19.2203965147        2.7212220848  MEMB      159             0.0000000000
     19684       159  23SM      H23H          -23.2454900061      -20.9136144257        2.2210466187  MEMB      159             0.0000000000
     19685       160  DOPC      N              28.7955138145       12.7977996016      -18.7851484294  MEMB      160             0.0000000000
     19686       160  DOPC      C12            29.1932468245       14.1873030388      -19.4086251642  MEMB      160             0.0000000000
     19687       160  DOPC      H12A           28.2614234904       14.7087190342      -19.5705837880  MEMB      160             0.0000000000
     19688       160  DOPC      H12B           29.7437102022       14.0308027938      -20.3245388130  MEMB      160             0.0000000000
     19689       160  DOPC      C13            28.1638413703       12.9692993449      -17.3943041537  MEMB      160             0.0000000000
     19690       160  DOPC      H13A           27.2419999827       13.5271756983      -17.4676676694  MEMB      160             0.0000000000
     19691       160  DOPC      H13B           27.8756709943       11.9601996169      -17.1392052760  MEMB      160             0.0000000000
     19692       160  DOPC      H13C           28.9049867303       13.5026007554      -16.8175084960  MEMB      160             0.0000000000
     19693       160  DOPC      C14            30.1798053438       12.1536990484      -18.5491333095  MEMB      160             0.0000000000
     19694       160  DOPC      H14A           30.9361374933       12.3603785171      -19.2918615008  MEMB      160             0.0000000000
     19695       160  DOPC      H14B           30.7108799024       12.5479738694      -17.6953727811  MEMB      160             0.0000000000
     19696       160  DOPC      H14C           30.1105766807       11.0799303510      -18.4562465027  MEMB      160             0.0000000000
     19697       160  DOPC      C15            27.9686654964       12.0312652956      -19.8249431627  MEMB      160             0.0000000000
     19698       160  DOPC      H15A           28.5928406125       11.6712666770      -20.6294346484  MEMB      160             0.0000000000
     19699       160  DOPC      H15B           27.1254945530       12.5435888414      -20.2642462360  MEMB      160             0.0000000000
     19700       160  DOPC      H15C           27.5336798164       11.1869607301      -19.3108056609  MEMB      160             0.0000000000
     19701       160  DOPC      C11            30.0362881903       15.1757427148      -18.5174543029  MEMB      160             0.0000000000
     19702       160  DOPC      H11A           29.9918569353       16.1687732747      -19.0136775094  MEMB      160             0.0000000000
     19703       160  DOPC      H11B           29.4300051557       15.2296068101      -17.5880241448  MEMB      160             0.0000000000
     19704       160  DOPC      P              32.4046035716       14.9825181918      -19.3900924829  MEMB      160             0.0000000000
     19705       160  DOPC      O13            31.7836500240       15.0542138662      -20.7085672361  MEMB      160             0.0000000000
     19706       160  DOPC      O14            33.5124628981       14.0420627992      -19.2200617543  MEMB      160             0.0000000000
     19707       160  DOPC      O12            31.3361665025       14.7117936537      -18.2869801402  MEMB      160             0.0000000000
     19708       160  DOPC      O11            33.0131875512       16.3835967190      -18.9146898630  MEMB      160             0.0000000000
     19709       160  DOPC      C1             34.0785620574       16.5950000302      -18.0162773851  MEMB      160             0.0000000000
     19710       160  DOPC      HA             34.6022470944       17.5297113604      -18.3101993591  MEMB      160             0.0000000000
     19711       160  DOPC      HB             34.8176829065       15.7655698046      -18.0244648911  MEMB      160             0.0000000000
     19712       160  DOPC      C2             33.7151145228       16.8157222371      -16.5683370349  MEMB      160             0.0000000000
     19713       160  DOPC      HS             34.6346285861       16.9680960331      -15.9636905189  MEMB      160             0.0000000000
     19714       160  DOPC      O21            32.9403538101       15.7390282578      -16.0876990506  MEMB      160             0.0000000000
     19715       160  DOPC      C21            33.6103697449       14.7730712197      -15.2965500425  MEMB      160             0.0000000000
     19716       160  DOPC      O22            34.7560113523       14.7988997195      -14.9663391054  MEMB      160             0.0000000000
     19717       160  DOPC      C22            32.5791383843       13.6711603539      -14.9041240295  MEMB      160             0.0000000000
     19718       160  DOPC      H2R            32.4965300143       13.0061719497      -15.7902887191  MEMB      160             0.0000000000
     19719       160  DOPC      H2S            31.6600299859       14.2331984874      -14.6326948970  MEMB      160             0.0000000000
     19720       160  DOPC      C3             32.9460082530       18.1491452182      -16.4265372340  MEMB      160             0.0000000000
     19721       160  DOPC      HX             32.1411142948       18.1888328420      -17.1913190530  MEMB      160             0.0000000000
     19722       160  DOPC      HY             33.5805988500       19.0492932540      -16.5726511359  MEMB      160             0.0000000000
     19723       160  DOPC      O31            32.4795867056       18.2685268899      -15.1028176731  MEMB      160             0.0000000000
     19724       160  DOPC      C31            31.2293439990       17.9269444260      -14.9862954316  MEMB      160             0.0000000000
     19725       160  DOPC      O32            30.5831962399       17.3658329654      -15.8118530630  MEMB      160             0.0000000000
     19726       160  DOPC      C32            30.8897475505       18.1857057300      -13.5057734530  MEMB      160             0.0000000000
     19727       160  DOPC      H2X            30.9554127453       19.2926903177      -13.4379929160  MEMB      160             0.0000000000
     19728       160  DOPC      H2Y            29.8802736781       17.7725965687      -13.2945290111  MEMB      160             0.0000000000
     19729       160  DOPC      C23            32.9433625991       12.8950234792      -13.5851573722  MEMB      160             0.0000000000
     19730       160  DOPC      H3R            33.3395524592       13.4908080283      -12.7352193490  MEMB      160             0.0000000000
     19731       160  DOPC      H3S            33.7237028466       12.1189919287      -13.7373580035  MEMB      160             0.0000000000
     19732       160  DOPC      C24            31.8065936376       11.9573864859      -13.1801861564  MEMB      160             0.0000000000
     19733       160  DOPC      H4R            32.1507011902       11.2199972101      -12.4237683039  MEMB      160             0.0000000000
     19734       160  DOPC      H4S            31.4861325015       11.3124929813      -14.0261987465  MEMB      160             0.0000000000
     19735       160  DOPC      C25            30.6082554997       12.7327826105      -12.4359672226  MEMB      160             0.0000000000
     19736       160  DOPC      H5R            29.8911674785       12.0011246826      -12.0061041916  MEMB      160             0.0000000000
     19737       160  DOPC      H5S            30.0966305662       13.3215105877      -13.2271436364  MEMB      160             0.0000000000
     19738       160  DOPC      C26            31.1003192678       13.6154085332      -11.2450402707  MEMB      160             0.0000000000
     19739       160  DOPC      H6R            31.8459766201       14.3525580445      -11.6123638979  MEMB      160             0.0000000000
     19740       160  DOPC      H6S            31.6774999540       12.9272619614      -10.5911002224  MEMB      160             0.0000000000
     19741       160  DOPC      C27            29.9205456223       14.2871922601      -10.4449065000  MEMB      160             0.0000000000
     19742       160  DOPC      H7R            29.1427972433       14.7000967736      -11.1223564799  MEMB      160             0.0000000000
     19743       160  DOPC      H7S            30.1954998407       15.1328441258       -9.7788780545  MEMB      160             0.0000000000
     19744       160  DOPC      C28            29.1138622108       13.3571968421       -9.4918384130  MEMB      160             0.0000000000
     19745       160  DOPC      H8R            28.4800668848       12.6564808908      -10.0763230211  MEMB      160             0.0000000000
     19746       160  DOPC      H8S            28.4089988094       13.9950760791       -8.9168620127  MEMB      160             0.0000000000
     19747       160  DOPC      C29            29.9263761681       12.6005728361       -8.5646815745  MEMB      160             0.0000000000
     19748       160  DOPC      H9R            30.4385338480       11.7345987622       -9.0094107385  MEMB      160             0.0000000000
     19749       160  DOPC      C210           30.1074610965       12.9467604383       -7.2462081227  MEMB      160             0.0000000000
     19750       160  DOPC      H10R           30.5805063636       12.1979920255       -6.5938479088  MEMB      160             0.0000000000
     19751       160  DOPC      C211           29.6328431723       14.1424563593       -6.4503869163  MEMB      160             0.0000000000
     19752       160  DOPC      H11R           28.8676975242       13.7726328125       -5.7347726893  MEMB      160             0.0000000000
     19753       160  DOPC      H11S           29.0978077935       14.8696080067       -7.0979272279  MEMB      160             0.0000000000
     19754       160  DOPC      C212           30.6096705316       14.8127556014       -5.4101433366  MEMB      160             0.0000000000
     19755       160  DOPC      H12R           31.5496668417       15.1302225774       -5.9100860618  MEMB      160             0.0000000000
     19756       160  DOPC      H12S           30.8451401415       14.1533069412       -4.5475880012  MEMB      160             0.0000000000
     19757       160  DOPC      C213           30.0233992538       16.1367625452       -4.9352711740  MEMB      160             0.0000000000
     19758       160  DOPC      H13R           29.1334461460       15.9214162492       -4.3060405102  MEMB      160             0.0000000000
     19759       160  DOPC      H13S           29.7634168955       16.7970802408       -5.7900868143  MEMB      160             0.0000000000
     19760       160  DOPC      C214           31.0024109483       16.9377089378       -4.1304645589  MEMB      160             0.0000000000
     19761       160  DOPC      H14R           30.7098039928       18.0056573483       -4.2209542070  MEMB      160             0.0000000000
     19762       160  DOPC      H14S           31.9507376823       16.8334304402       -4.6997834549  MEMB      160             0.0000000000
     19763       160  DOPC      C215           31.0489921013       16.6463255260       -2.7052490655  MEMB      160             0.0000000000
     19764       160  DOPC      H15R           31.6926609109       17.4026957702       -2.2073386057  MEMB      160             0.0000000000
     19765       160  DOPC      H15S           31.5285263292       15.6505987731       -2.5916861954  MEMB      160             0.0000000000
     19766       160  DOPC      C216           29.6657424630       16.6415017908       -2.0416836225  MEMB      160             0.0000000000
     19767       160  DOPC      H16R           29.0522279082       15.7346046847       -2.2299875465  MEMB      160             0.0000000000
     19768       160  DOPC      H16S           29.0785222155       17.4942444486       -2.4445770793  MEMB      160             0.0000000000
     19769       160  DOPC      C217           29.7254647919       16.7838021798       -0.4751288978  MEMB      160             0.0000000000
     19770       160  DOPC      H17R           28.6795634138       16.7295773437       -0.1043573536  MEMB      160             0.0000000000
     19771       160  DOPC      H17S           30.1427146344       17.8114056106       -0.4098957891  MEMB      160             0.0000000000
     19772       160  DOPC      C218           30.6710663000       15.8115921678        0.2219089513  MEMB      160             0.0000000000
     19773       160  DOPC      H18R           31.6411160912       15.9152051880       -0.3096816879  MEMB      160             0.0000000000
     19774       160  DOPC      H18S           30.3645195361       14.7479668875        0.1267681377  MEMB      160             0.0000000000
     19775       160  DOPC      H18T           30.8349039059       16.0924017499        1.2842755870  MEMB      160             0.0000000000
     19776       160  DOPC      C33            31.8048810253       17.5269479581      -12.4516705736  MEMB      160             0.0000000000
     19777       160  DOPC      H3X            32.8658175696       17.6928648041      -12.7366374655  MEMB      160             0.0000000000
     19778       160  DOPC      H3Y            31.6474617834       16.4290810745      -12.3866434659  MEMB      160             0.0000000000
     19779       160  DOPC      C34            31.6921110827       18.2200567303      -11.0900138970  MEMB      160             0.0000000000
     19780       160  DOPC      H4X            30.6540286295       18.0709666669      -10.7233012946  MEMB      160             0.0000000000
     19781       160  DOPC      H4Y            32.0222605109       19.2806231669      -11.1128457511  MEMB      160             0.0000000000
     19782       160  DOPC      C35            32.4488301850       17.3533880970      -10.0362816090  MEMB      160             0.0000000000
     19783       160  DOPC      H5X            33.4708594609       17.2109852781      -10.4479843947  MEMB      160             0.0000000000
     19784       160  DOPC      H5Y            32.0609857636       16.3410966728       -9.7930456043  MEMB      160             0.0000000000
     19785       160  DOPC      C36            32.7941305778       18.0527305092       -8.6571917588  MEMB      160             0.0000000000
     19786       160  DOPC      H6X            33.2543157764       19.0187230356       -8.9562052759  MEMB      160             0.0000000000
     19787       160  DOPC      H6Y            31.9068924278       18.4057736760       -8.0893094505  MEMB      160             0.0000000000
     19788       160  DOPC      C37            33.6452780059       17.1811426826       -7.7393567683  MEMB      160             0.0000000000
     19789       160  DOPC      H7X            33.0135758119       16.2916457229       -7.5294314343  MEMB      160             0.0000000000
     19790       160  DOPC      H7Y            34.5908219217       16.7908000735       -8.1728306513  MEMB      160             0.0000000000
     19791       160  DOPC      C38            33.9835890029       17.8681177748       -6.4617371759  MEMB      160             0.0000000000
     19792       160  DOPC      H8X            33.0048744291       18.1783722374       -6.0372593529  MEMB      160             0.0000000000
     19793       160  DOPC      H8Y            34.5074093936       18.7849964285       -6.8070868352  MEMB      160             0.0000000000
     19794       160  DOPC      C39            34.7827601661       17.0087372212       -5.5142844083  MEMB      160             0.0000000000
     19795       160  DOPC      H9X            34.9926101230       15.9783258095       -5.8371086685  MEMB      160             0.0000000000
     19796       160  DOPC      C310           35.1354721179       17.4059602320       -4.2728637614  MEMB      160             0.0000000000
     19797       160  DOPC      H10X           35.8930455877       16.7560344475       -3.8106097020  MEMB      160             0.0000000000
     19798       160  DOPC      C311           34.8825034783       18.7036009571       -3.4442222642  MEMB      160             0.0000000000
     19799       160  DOPC      H11X           33.8511414424       19.0787897941       -3.6169852182  MEMB      160             0.0000000000
     19800       160  DOPC      H11Y           35.4882728078       19.5102055800       -3.9097905195  MEMB      160             0.0000000000
     19801       160  DOPC      C312           35.2152687864       18.7216949618       -1.9474565482  MEMB      160             0.0000000000
     19802       160  DOPC      H12X           35.2302241009       19.7818596631       -1.6155718448  MEMB      160             0.0000000000
     19803       160  DOPC      H12Y           36.2407353147       18.3342496449       -1.7668325410  MEMB      160             0.0000000000
     19804       160  DOPC      C313           34.2347774348       17.8889283022       -1.1008049447  MEMB      160             0.0000000000
     19805       160  DOPC      H13X           33.2109827876       18.3203942253       -1.0990711897  MEMB      160             0.0000000000
     19806       160  DOPC      H13Y           34.1529011519       16.9246725556       -1.6465416154  MEMB      160             0.0000000000
     19807       160  DOPC      C314           34.7424169679       17.7078312132        0.3780847593  MEMB      160             0.0000000000
     19808       160  DOPC      H14X           33.9351534031       17.1093274421        0.8518362454  MEMB      160             0.0000000000
     19809       160  DOPC      H14Y           35.6857290233       17.1243493490        0.3145805935  MEMB      160             0.0000000000
     19810       160  DOPC      C315           34.9651112115       19.1003466456        1.0411787848  MEMB      160             0.0000000000
     19811       160  DOPC      H15X           35.8799122228       19.5576666489        0.6072209349  MEMB      160             0.0000000000
     19812       160  DOPC      H15Y           35.2002259315       18.9412752115        2.1153010709  MEMB      160             0.0000000000
     19813       160  DOPC      C316           33.7895227436       20.0563004220        0.8329543784  MEMB      160             0.0000000000
     19814       160  DOPC      H16X           33.9254017421       21.0866880347        1.2255864791  MEMB      160             0.0000000000
     19815       160  DOPC      H16Y           33.4802758049       20.1174267063       -0.2323871885  MEMB      160             0.0000000000
     19816       160  DOPC      C317           32.4802591396       19.6469803347        1.5122457413  MEMB      160             0.0000000000
     19817       160  DOPC      H17X           32.2698648225       18.6497528922        1.0699874000  MEMB      160             0.0000000000
     19818       160  DOPC      H17Y           32.5020869397       19.4156395969        2.5986734095  MEMB      160             0.0000000000
     19819       160  DOPC      C318           31.3950659312       20.6895093790        1.3026512447  MEMB      160             0.0000000000
     19820       160  DOPC      H18X           30.6660246259       20.5651054340        2.1317141903  MEMB      160             0.0000000000
     19821       160  DOPC      H18Y           31.8734865073       21.6890598386        1.3822393587  MEMB      160             0.0000000000
     19822       160  DOPC      H18Z           30.9573420164       20.4802776795        0.3031813219  MEMB      160             0.0000000000
     19823       161  DOPC      N               7.2974245293      -33.2911010151      -18.1681476094  MEMB      161             0.0000000000
     19824       161  DOPC      C12             7.4910988986      -32.4270755230      -19.4104747213  MEMB      161             0.0000000000
     19825       161  DOPC      H12A            6.6006716039      -31.8352451330      -19.2579097906  MEMB      161             0.0000000000
     19826       161  DOPC      H12B            7.2686858154      -32.9605116098      -20.3228224512  MEMB      161             0.0000000000
     19827       161  DOPC      C13             8.3108028413      -34.4070519299      -18.1658738445  MEMB      161             0.0000000000
     19828       161  DOPC      H13A            8.0235952379      -35.1479263937      -18.8973221764  MEMB      161             0.0000000000
     19829       161  DOPC      H13B            9.2222248784      -34.0116913775      -18.5894304165  MEMB      161             0.0000000000
     19830       161  DOPC      H13C            8.2410208581      -34.7713565123      -17.1515698280  MEMB      161             0.0000000000
     19831       161  DOPC      C14             5.9229525943      -33.8643893709      -18.2047064634  MEMB      161             0.0000000000
     19832       161  DOPC      H14A            5.2191233478      -33.0460805930      -18.1673560408  MEMB      161             0.0000000000
     19833       161  DOPC      H14B            5.8645830938      -34.4158581921      -19.1314616439  MEMB      161             0.0000000000
     19834       161  DOPC      H14C            5.8209077767      -34.4773068827      -17.3213498068  MEMB      161             0.0000000000
     19835       161  DOPC      C15             7.4049797957      -32.5618787666      -16.8753622777  MEMB      161             0.0000000000
     19836       161  DOPC      H15A            6.6970383433      -31.7499056109      -16.7984284527  MEMB      161             0.0000000000
     19837       161  DOPC      H15B            8.3249525264      -32.0172021127      -16.7224652191  MEMB      161             0.0000000000
     19838       161  DOPC      H15C            7.3086526361      -33.1702172247      -15.9882065114  MEMB      161             0.0000000000
     19839       161  DOPC      C11             8.7520234357      -31.5808853337      -19.6028046030  MEMB      161             0.0000000000
     19840       161  DOPC      H11A            8.5441796834      -30.8884205171      -20.4463770038  MEMB      161             0.0000000000
     19841       161  DOPC      H11B            8.6358693258      -31.0213879990      -18.6500234645  MEMB      161             0.0000000000
     19842       161  DOPC      P              11.3167611339      -31.6399230400      -19.7561874227  MEMB      161             0.0000000000
     19843       161  DOPC      O13            11.5767289758      -31.3830891016      -21.2202538691  MEMB      161             0.0000000000
     19844       161  DOPC      O14            12.3346069581      -32.4030779707      -18.9733853447  MEMB      161             0.0000000000
     19845       161  DOPC      O12             9.9478200878      -32.4061325521      -19.6271768176  MEMB      161             0.0000000000
     19846       161  DOPC      O11            11.0087187755      -30.2856831614      -18.9956270321  MEMB      161             0.0000000000
     19847       161  DOPC      C1             12.0148497919      -29.6749225239      -18.1456418230  MEMB      161             0.0000000000
     19848       161  DOPC      HA             12.0241336802      -28.5742446687      -18.2964507839  MEMB      161             0.0000000000
     19849       161  DOPC      HB             13.0425617401      -30.0507612480      -18.3376684749  MEMB      161             0.0000000000
     19850       161  DOPC      C2             11.7160484653      -30.0421457569      -16.6532250220  MEMB      161             0.0000000000
     19851       161  DOPC      HS             12.7162611049      -29.7674578768      -16.2551764443  MEMB      161             0.0000000000
     19852       161  DOPC      O21            11.3569406036      -31.4240419474      -16.4780226878  MEMB      161             0.0000000000
     19853       161  DOPC      C21            12.0412704935      -32.2811410924      -15.8057021131  MEMB      161             0.0000000000
     19854       161  DOPC      O22            13.1917799372      -32.0316914388      -15.3916224249  MEMB      161             0.0000000000
     19855       161  DOPC      C22            11.1805503678      -33.5294719009      -15.4596464821  MEMB      161             0.0000000000
     19856       161  DOPC      H2R            11.5625666373      -34.3697835847      -16.0779188424  MEMB      161             0.0000000000
     19857       161  DOPC      H2S            10.1071706908      -33.3808454613      -15.7047733732  MEMB      161             0.0000000000
     19858       161  DOPC      C3             10.5336297288      -29.2200885390      -16.1131727500  MEMB      161             0.0000000000
     19859       161  DOPC      HX              9.5046022395      -29.4411532963      -16.4689169364  MEMB      161             0.0000000000
     19860       161  DOPC      HY             10.8539918090      -28.1687403695      -16.2755181284  MEMB      161             0.0000000000
     19861       161  DOPC      O31            10.5175514927      -29.4392315450      -14.6886760728  MEMB      161             0.0000000000
     19862       161  DOPC      C31            11.0081742342      -28.4100494310      -13.8583543283  MEMB      161             0.0000000000
     19863       161  DOPC      O32            11.5468416275      -27.3973276407      -14.2628064170  MEMB      161             0.0000000000
     19864       161  DOPC      C32            10.7652789422      -28.6954784530      -12.3777386257  MEMB      161             0.0000000000
     19865       161  DOPC      H2X             9.7423195461      -29.1167312927      -12.2756550524  MEMB      161             0.0000000000
     19866       161  DOPC      H2Y            11.3438406730      -29.5674928878      -12.0046727992  MEMB      161             0.0000000000
     19867       161  DOPC      C23            11.4353126472      -33.9397690111      -13.9981644341  MEMB      161             0.0000000000
     19868       161  DOPC      H3R            12.5132890134      -33.8351567327      -13.7504871211  MEMB      161             0.0000000000
     19869       161  DOPC      H3S            11.0172278618      -34.9407925950      -13.7584192067  MEMB      161             0.0000000000
     19870       161  DOPC      C24            10.6545607490      -32.9968420139      -12.9800163707  MEMB      161             0.0000000000
     19871       161  DOPC      H4R             9.5792467047      -33.1188921626      -13.2312621646  MEMB      161             0.0000000000
     19872       161  DOPC      H4S            10.9876107438      -31.9661074512      -13.2269674825  MEMB      161             0.0000000000
     19873       161  DOPC      C25            10.9509151135      -33.2811652780      -11.5074854395  MEMB      161             0.0000000000
     19874       161  DOPC      H5R            11.0056885235      -34.3832095695      -11.3777956862  MEMB      161             0.0000000000
     19875       161  DOPC      H5S            10.0339348841      -33.0669581777      -10.9179232827  MEMB      161             0.0000000000
     19876       161  DOPC      C26            12.0295131396      -32.3644479530      -10.8376143493  MEMB      161             0.0000000000
     19877       161  DOPC      H6R            11.7369281238      -31.3042381052      -10.6805477806  MEMB      161             0.0000000000
     19878       161  DOPC      H6S            12.8524435808      -32.2568131590      -11.5762080735  MEMB      161             0.0000000000
     19879       161  DOPC      C27            12.5905588039      -32.8832737004       -9.5095365608  MEMB      161             0.0000000000
     19880       161  DOPC      H7R            13.5538962510      -32.3779686929       -9.2837742745  MEMB      161             0.0000000000
     19881       161  DOPC      H7S            12.8284087604      -33.9543672272       -9.6842013343  MEMB      161             0.0000000000
     19882       161  DOPC      C28            11.7307774402      -32.7162800220       -8.2108818006  MEMB      161             0.0000000000
     19883       161  DOPC      H8R            12.2846219387      -33.1549748484       -7.3534884750  MEMB      161             0.0000000000
     19884       161  DOPC      H8S            10.8144900790      -33.3417940786       -8.2697944648  MEMB      161             0.0000000000
     19885       161  DOPC      C29            11.3818051847      -31.2673373614       -7.8731083238  MEMB      161             0.0000000000
     19886       161  DOPC      H9R            12.2849617183      -30.6428426047       -7.8074215801  MEMB      161             0.0000000000
     19887       161  DOPC      C210           10.2956012080      -30.5616315757       -7.6967093065  MEMB      161             0.0000000000
     19888       161  DOPC      H10R           10.4470885049      -29.5186641172       -7.3816365661  MEMB      161             0.0000000000
     19889       161  DOPC      C211            8.9128932626      -31.1651308213       -7.8495556320  MEMB      161             0.0000000000
     19890       161  DOPC      H11R            8.8414243742      -32.1202148031       -8.4126069166  MEMB      161             0.0000000000
     19891       161  DOPC      H11S            8.2539191666      -30.4837560934       -8.4290404475  MEMB      161             0.0000000000
     19892       161  DOPC      C212            8.0553161218      -31.4716265483       -6.5751017073  MEMB      161             0.0000000000
     19893       161  DOPC      H12R            8.5185636660      -32.3470178872       -6.0717003537  MEMB      161             0.0000000000
     19894       161  DOPC      H12S            7.0281907153      -31.6699710396       -6.9492594805  MEMB      161             0.0000000000
     19895       161  DOPC      C213            8.0487235654      -30.1860636872       -5.7309424719  MEMB      161             0.0000000000
     19896       161  DOPC      H13R            7.7870320973      -29.2926150119       -6.3372328470  MEMB      161             0.0000000000
     19897       161  DOPC      H13S            9.0546621911      -30.1435076279       -5.2612644446  MEMB      161             0.0000000000
     19898       161  DOPC      C214            6.9972622407      -30.1913992701       -4.5519904718  MEMB      161             0.0000000000
     19899       161  DOPC      H14R            6.1515889636      -30.8482331304       -4.8481775820  MEMB      161             0.0000000000
     19900       161  DOPC      H14S            6.7030967431      -29.1228138621       -4.4750974107  MEMB      161             0.0000000000
     19901       161  DOPC      C215            7.6667227625      -30.4995567340       -3.2082141478  MEMB      161             0.0000000000
     19902       161  DOPC      H15R            8.2081161467      -29.5812943987       -2.8951506416  MEMB      161             0.0000000000
     19903       161  DOPC      H15S            8.3116552904      -31.3840327825       -3.3981737313  MEMB      161             0.0000000000
     19904       161  DOPC      C216            6.7456415842      -30.7949082696       -2.0437053847  MEMB      161             0.0000000000
     19905       161  DOPC      H16R            6.1466382120      -31.7113666630       -2.2324351461  MEMB      161             0.0000000000
     19906       161  DOPC      H16S            6.1231584888      -29.8756914680       -2.0003841657  MEMB      161             0.0000000000
     19907       161  DOPC      C217            7.3843057380      -30.8976617278       -0.5858614568  MEMB      161             0.0000000000
     19908       161  DOPC      H17R            7.9136995054      -29.9383623916       -0.4019934580  MEMB      161             0.0000000000
     19909       161  DOPC      H17S            8.0526127279      -31.7841145121       -0.6293147462  MEMB      161             0.0000000000
     19910       161  DOPC      C218            6.3287527076      -31.1855351581        0.4146022464  MEMB      161             0.0000000000
     19911       161  DOPC      H18R            5.9280160577      -32.2201674331        0.3574431330  MEMB      161             0.0000000000
     19912       161  DOPC      H18S            5.5606562323      -30.3828439080        0.4086422015  MEMB      161             0.0000000000
     19913       161  DOPC      H18T            6.7660387116      -31.1842817479        1.4359253178  MEMB      161             0.0000000000
     19914       161  DOPC      C33            10.8588301106      -27.4360828581      -11.5450460977  MEMB      161             0.0000000000
     19915       161  DOPC      H3X            10.1953238122      -26.6740341409      -12.0069580052  MEMB      161             0.0000000000
     19916       161  DOPC      H3Y            11.9092674430      -27.0864368852      -11.4520385620  MEMB      161             0.0000000000
     19917       161  DOPC      C34            10.4357035479      -27.7234150002      -10.1003736625  MEMB      161             0.0000000000
     19918       161  DOPC      H4X            11.3673409855      -28.0650808824       -9.6007364929  MEMB      161             0.0000000000
     19919       161  DOPC      H4Y             9.6678178676      -28.5209581374      -10.0076503772  MEMB      161             0.0000000000
     19920       161  DOPC      C35             9.9983831774      -26.4354765274       -9.3994952107  MEMB      161             0.0000000000
     19921       161  DOPC      H5X             9.0888725609      -26.0154075030       -9.8797597772  MEMB      161             0.0000000000
     19922       161  DOPC      H5Y            10.7822864808      -25.6514990534       -9.4715780448  MEMB      161             0.0000000000
     19923       161  DOPC      C36             9.7379466787      -26.6330572618       -7.9045121111  MEMB      161             0.0000000000
     19924       161  DOPC      H6X            10.3742646402      -27.4612578909       -7.5256930291  MEMB      161             0.0000000000
     19925       161  DOPC      H6Y            10.0710681480      -25.6622514786       -7.4792038299  MEMB      161             0.0000000000
     19926       161  DOPC      C37             8.3063473130      -26.6247974892       -7.3244633299  MEMB      161             0.0000000000
     19927       161  DOPC      H7X             7.7199048714      -25.7901169332       -7.7645935270  MEMB      161             0.0000000000
     19928       161  DOPC      H7Y             7.8032228736      -27.5712286345       -7.6167889669  MEMB      161             0.0000000000
     19929       161  DOPC      C38             8.2177673881      -26.4200369368       -5.7826808172  MEMB      161             0.0000000000
     19930       161  DOPC      H8X             8.9151216185      -27.0629619738       -5.2041781759  MEMB      161             0.0000000000
     19931       161  DOPC      H8Y             7.2712413666      -26.9639409036       -5.5763364983  MEMB      161             0.0000000000
     19932       161  DOPC      C39             8.0999792670      -25.0586872351       -5.1852039320  MEMB      161             0.0000000000
     19933       161  DOPC      H9X             7.1869684762      -24.5137512968       -5.4670842530  MEMB      161             0.0000000000
     19934       161  DOPC      C310            8.9678015350      -24.4994535032       -4.2861647445  MEMB      161             0.0000000000
     19935       161  DOPC      H10X            8.9037184224      -23.4340819255       -4.0199382629  MEMB      161             0.0000000000
     19936       161  DOPC      C311           10.2188662055      -25.2320945858       -3.7876208980  MEMB      161             0.0000000000
     19937       161  DOPC      H11X           11.0605606227      -24.5114126187       -3.7070680802  MEMB      161             0.0000000000
     19938       161  DOPC      H11Y           10.8032153134      -25.8874947660       -4.4682879992  MEMB      161             0.0000000000
     19939       161  DOPC      C312           10.0926963912      -25.5499866136       -2.2591289988  MEMB      161             0.0000000000
     19940       161  DOPC      H12X            9.5496329956      -24.7002856004       -1.7928545470  MEMB      161             0.0000000000
     19941       161  DOPC      H12Y           11.1152412982      -25.6782704445       -1.8440789134  MEMB      161             0.0000000000
     19942       161  DOPC      C313            9.4974650550      -26.9453050890       -2.0097827546  MEMB      161             0.0000000000
     19943       161  DOPC      H13X            8.4301923352      -26.9533520487       -1.7012614810  MEMB      161             0.0000000000
     19944       161  DOPC      H13Y            9.4696148681      -27.4948519260       -2.9749483220  MEMB      161             0.0000000000
     19945       161  DOPC      C314           10.3189593901      -27.8192609121       -1.0338939492  MEMB      161             0.0000000000
     19946       161  DOPC      H14X            9.9796060372      -28.8639328652       -1.2006901037  MEMB      161             0.0000000000
     19947       161  DOPC      H14Y           11.4188011287      -27.7851819658       -1.1872174766  MEMB      161             0.0000000000
     19948       161  DOPC      C315           10.1111534984      -27.5030563097        0.4531042502  MEMB      161             0.0000000000
     19949       161  DOPC      H15X            9.0064925116      -27.4936231609        0.5712402364  MEMB      161             0.0000000000
     19950       161  DOPC      H15Y           10.3679956898      -26.4226768014        0.4867668917  MEMB      161             0.0000000000
     19951       161  DOPC      C316           10.8460885933      -28.3022619824        1.4851207506  MEMB      161             0.0000000000
     19952       161  DOPC      H16X           11.9503333001      -28.2006699643        1.4169757761  MEMB      161             0.0000000000
     19953       161  DOPC      H16Y           10.4275926256      -28.1078448198        2.4957556574  MEMB      161             0.0000000000
     19954       161  DOPC      C317           10.7147610744      -29.8796339396        1.4116506566  MEMB      161             0.0000000000
     19955       161  DOPC      H17X            9.6389056771      -30.1555606807        1.3848041461  MEMB      161             0.0000000000
     19956       161  DOPC      H17Y           11.0791824763      -30.1258296593        0.3914028410  MEMB      161             0.0000000000
     19957       161  DOPC      C318           11.4249866239      -30.6589860536        2.5520157152  MEMB      161             0.0000000000
     19958       161  DOPC      H18X           12.5267691787      -30.5171245023        2.5684846273  MEMB      161             0.0000000000
     19959       161  DOPC      H18Y           11.1076956014      -30.5553834108        3.6116926202  MEMB      161             0.0000000000
     19960       161  DOPC      H18Z           11.2619004489      -31.7405702776        2.3573369428  MEMB      161             0.0000000000
     19961       162  DOPC      N              24.8249695154       22.2060400069      -18.6317056363  MEMB      162             0.0000000000
     19962       162  DOPC      C12            25.6587744065       21.2246689115      -17.8691470173  MEMB      162             0.0000000000
     19963       162  DOPC      H12A           24.9549881803       20.8147619169      -17.1598788761  MEMB      162             0.0000000000
     19964       162  DOPC      H12B           26.4183355072       21.6837442768      -17.2537474837  MEMB      162             0.0000000000
     19965       162  DOPC      C13            23.6819166343       21.5296292155      -19.3526216348  MEMB      162             0.0000000000
     19966       162  DOPC      H13A           24.1463996681       20.8679046531      -20.0687056444  MEMB      162             0.0000000000
     19967       162  DOPC      H13B           23.0874065016       20.9441528448      -18.6669285799  MEMB      162             0.0000000000
     19968       162  DOPC      H13C           23.1293512789       22.2396569164      -19.9500598246  MEMB      162             0.0000000000
     19969       162  DOPC      C14            25.6156037213       22.9869761169      -19.6276880928  MEMB      162             0.0000000000
     19970       162  DOPC      H14A           26.5434228287       23.2840686097      -19.1615467535  MEMB      162             0.0000000000
     19971       162  DOPC      H14B           25.9660583050       22.3089198924      -20.3917700444  MEMB      162             0.0000000000
     19972       162  DOPC      H14C           24.9726633799       23.7673609504      -20.0071974612  MEMB      162             0.0000000000
     19973       162  DOPC      C15            24.4257300928       23.2189455644      -17.6174325508  MEMB      162             0.0000000000
     19974       162  DOPC      H15A           25.2490719514       23.7407491369      -17.1524282781  MEMB      162             0.0000000000
     19975       162  DOPC      H15B           23.9720058565       22.8272584305      -16.7190365226  MEMB      162             0.0000000000
     19976       162  DOPC      H15C           23.7071068215       23.8912248338      -18.0624285391  MEMB      162             0.0000000000
     19977       162  DOPC      C11            26.2993173734       20.0731079733      -18.6971462825  MEMB      162             0.0000000000
     19978       162  DOPC      H11A           26.5155741386       19.3126534932      -17.9165933440  MEMB      162             0.0000000000
     19979       162  DOPC      H11B           25.4989723856       19.5903095364      -19.2977079517  MEMB      162             0.0000000000
     19980       162  DOPC      P              28.6316773345       19.6254397291      -19.5367022239  MEMB      162             0.0000000000
     19981       162  DOPC      O13            29.8098853546       20.4084331132      -19.9769302576  MEMB      162             0.0000000000
     19982       162  DOPC      O14            28.1760586690       18.3312837783      -20.2089212587  MEMB      162             0.0000000000
     19983       162  DOPC      O12            27.3483155828       20.5674591785      -19.4751217876  MEMB      162             0.0000000000
     19984       162  DOPC      O11            28.7841708115       19.2753587085      -18.0065832586  MEMB      162             0.0000000000
     19985       162  DOPC      C1             29.8931255522       18.4856280576      -17.5674626460  MEMB      162             0.0000000000
     19986       162  DOPC      HA             30.8395353515       18.9983822708      -17.8426217618  MEMB      162             0.0000000000
     19987       162  DOPC      HB             29.7859355823       17.4928978070      -18.0546151968  MEMB      162             0.0000000000
     19988       162  DOPC      C2             29.8820669581       18.4995431599      -15.9967647922  MEMB      162             0.0000000000
     19989       162  DOPC      HS             30.4030055527       17.6180986414      -15.5654887256  MEMB      162             0.0000000000
     19990       162  DOPC      O21            28.5097575501       18.3621458443      -15.4391560058  MEMB      162             0.0000000000
     19991       162  DOPC      C21            27.8859098959       17.2536510868      -15.8003103257  MEMB      162             0.0000000000
     19992       162  DOPC      O22            28.3914482343       16.2768079676      -16.3085961773  MEMB      162             0.0000000000
     19993       162  DOPC      C22            26.4780920563       17.3969105169      -15.4520953012  MEMB      162             0.0000000000
     19994       162  DOPC      H2R            25.9953056190       16.4160655035      -15.6500381306  MEMB      162             0.0000000000
     19995       162  DOPC      H2S            26.0087380879       18.1635065704      -16.1050565880  MEMB      162             0.0000000000
     19996       162  DOPC      C3             30.5009686386       19.8005311227      -15.4661860573  MEMB      162             0.0000000000
     19997       162  DOPC      HX             31.4679536674       19.9535557993      -15.9913950309  MEMB      162             0.0000000000
     19998       162  DOPC      HY             30.7335187184       19.6816486267      -14.3863209689  MEMB      162             0.0000000000
     19999       162  DOPC      O31            29.6542032657       20.9017772600      -15.8887712904  MEMB      162             0.0000000000
     20000       162  DOPC      C31            28.9658113322       21.5630592555      -14.9602902552  MEMB      162             0.0000000000
     20001       162  DOPC      O32            28.8010128827       21.2125266711      -13.7907824664  MEMB      162             0.0000000000
     20002       162  DOPC      C32            28.4946943234       22.8793252324      -15.5079514201  MEMB      162             0.0000000000
     20003       162  DOPC      H2X            29.4101948882       23.2370896182      -16.0258163568  MEMB      162             0.0000000000
     20004       162  DOPC      H2Y            27.6700050227       22.8306011735      -16.2508069331  MEMB      162             0.0000000000
     20005       162  DOPC      C23            26.1326650685       17.7902337178      -13.9989691339  MEMB      162             0.0000000000
     20006       162  DOPC      H3R            26.8713298709       17.4202802156      -13.2561166404  MEMB      162             0.0000000000
     20007       162  DOPC      H3S            25.1191743997       17.3557819528      -13.8632897409  MEMB      162             0.0000000000
     20008       162  DOPC      C24            25.7702411115       19.2518789714      -13.7436945655  MEMB      162             0.0000000000
     20009       162  DOPC      H4R            24.9638625794       19.6166035985      -14.4152980589  MEMB      162             0.0000000000
     20010       162  DOPC      H4S            26.5961368701       19.9675201042      -13.9438817332  MEMB      162             0.0000000000
     20011       162  DOPC      C25            25.3241113817       19.4319396221      -12.2501305768  MEMB      162             0.0000000000
     20012       162  DOPC      H5R            26.1646357154       19.1648496063      -11.5744808076  MEMB      162             0.0000000000
     20013       162  DOPC      H5S            24.5034754876       18.7042760474      -12.0729772330  MEMB      162             0.0000000000
     20014       162  DOPC      C26            24.8085637482       20.8121408077      -11.9204124039  MEMB      162             0.0000000000
     20015       162  DOPC      H6R            24.1216631519       21.2083533989      -12.6985538078  MEMB      162             0.0000000000
     20016       162  DOPC      H6S            25.6877747088       21.4894145198      -11.9714920413  MEMB      162             0.0000000000
     20017       162  DOPC      C27            24.1107270611       21.0619891381      -10.5679563859  MEMB      162             0.0000000000
     20018       162  DOPC      H7R            23.1009501349       20.5986635131      -10.5685248872  MEMB      162             0.0000000000
     20019       162  DOPC      H7S            23.8586852722       22.1248706741      -10.3652774915  MEMB      162             0.0000000000
     20020       162  DOPC      C28            24.8838395880       20.4520618474       -9.3857675623  MEMB      162             0.0000000000
     20021       162  DOPC      H8R            24.9666043486       19.3445896863       -9.4170232419  MEMB      162             0.0000000000
     20022       162  DOPC      H8S            24.1139989488       20.5990877475       -8.5983354155  MEMB      162             0.0000000000
     20023       162  DOPC      C29            26.2222043069       21.0561283866       -8.9847388884  MEMB      162             0.0000000000
     20024       162  DOPC      H9R            26.0386723410       22.1229320207       -8.7891737515  MEMB      162             0.0000000000
     20025       162  DOPC      C210           27.4664512195       20.5789799600       -8.7614943988  MEMB      162             0.0000000000
     20026       162  DOPC      H10R           28.2328586483       21.2492223000       -8.3450879388  MEMB      162             0.0000000000
     20027       162  DOPC      C211           27.7933053739       19.1314663129       -8.8565799572  MEMB      162             0.0000000000
     20028       162  DOPC      H11R           28.8296723158       18.9139664170       -9.1926730841  MEMB      162             0.0000000000
     20029       162  DOPC      H11S           27.1511457242       18.6375573369       -9.6168476150  MEMB      162             0.0000000000
     20030       162  DOPC      C212           27.6446301481       18.4324702059       -7.4364402931  MEMB      162             0.0000000000
     20031       162  DOPC      H12R           27.8210537626       17.3515913940       -7.6232460271  MEMB      162             0.0000000000
     20032       162  DOPC      H12S           26.6135122791       18.5374456129       -7.0363185035  MEMB      162             0.0000000000
     20033       162  DOPC      C213           28.8162023688       18.8493062413       -6.4711218663  MEMB      162             0.0000000000
     20034       162  DOPC      H13R           29.3266582805       19.6520875107       -7.0449674104  MEMB      162             0.0000000000
     20035       162  DOPC      H13S           29.5217638211       17.9923088269       -6.4257378886  MEMB      162             0.0000000000
     20036       162  DOPC      C214           28.3681983278       19.1182330546       -5.0937923963  MEMB      162             0.0000000000
     20037       162  DOPC      H14R           27.7018987139       18.3573415773       -4.6339984562  MEMB      162             0.0000000000
     20038       162  DOPC      H14S           27.7270698903       20.0248921926       -5.0585155745  MEMB      162             0.0000000000
     20039       162  DOPC      C215           29.5507466034       19.4370110718       -4.1660421758  MEMB      162             0.0000000000
     20040       162  DOPC      H15R           30.2043036305       20.2166452809       -4.6125333302  MEMB      162             0.0000000000
     20041       162  DOPC      H15S           30.1379439850       18.5026187479       -4.0378581425  MEMB      162             0.0000000000
     20042       162  DOPC      C216           29.2317872496       19.9431228127       -2.7468250223  MEMB      162             0.0000000000
     20043       162  DOPC      H16R           28.6593239574       20.8757545817       -2.5549786112  MEMB      162             0.0000000000
     20044       162  DOPC      H16S           30.1915558480       19.9923740209       -2.1893844529  MEMB      162             0.0000000000
     20045       162  DOPC      C217           28.5728584702       18.8698277724       -1.9222407265  MEMB      162             0.0000000000
     20046       162  DOPC      H17R           28.9020460605       18.9927520013       -0.8682746442  MEMB      162             0.0000000000
     20047       162  DOPC      H17S           28.9027354330       17.8454536079       -2.1982098260  MEMB      162             0.0000000000
     20048       162  DOPC      C218           27.0053214281       18.8958246772       -1.8389048631  MEMB      162             0.0000000000
     20049       162  DOPC      H18R           26.6102745948       19.1133087068       -2.8542665247  MEMB      162             0.0000000000
     20050       162  DOPC      H18S           26.5873437169       19.6673788219       -1.1574948401  MEMB      162             0.0000000000
     20051       162  DOPC      H18T           26.5572653679       17.9384754707       -1.4967813024  MEMB      162             0.0000000000
     20052       162  DOPC      C33            28.1358993347       23.9644297008      -14.4222376420  MEMB      162             0.0000000000
     20053       162  DOPC      H3X            28.1740750109       24.9743508583      -14.8836732682  MEMB      162             0.0000000000
     20054       162  DOPC      H3Y            28.8364083435       23.8132696487      -13.5732626833  MEMB      162             0.0000000000
     20055       162  DOPC      C34            26.7557161971       23.8273543242      -13.8862224990  MEMB      162             0.0000000000
     20056       162  DOPC      H4X            26.6405710749       22.8989919985      -13.2868846396  MEMB      162             0.0000000000
     20057       162  DOPC      H4Y            25.9910162118       23.8393804255      -14.6920823338  MEMB      162             0.0000000000
     20058       162  DOPC      C35            26.3699472922       24.8501270267      -12.7992451588  MEMB      162             0.0000000000
     20059       162  DOPC      H5X            25.6700879714       25.6279433026      -13.1727680789  MEMB      162             0.0000000000
     20060       162  DOPC      H5Y            27.3349268010       25.3604324305      -12.5925473018  MEMB      162             0.0000000000
     20061       162  DOPC      C36            25.8687132616       24.2583016910      -11.4290961419  MEMB      162             0.0000000000
     20062       162  DOPC      H6X            24.8565843425       23.8430524797      -11.6227037515  MEMB      162             0.0000000000
     20063       162  DOPC      H6Y            26.5452085943       23.4456232856      -11.0881721006  MEMB      162             0.0000000000
     20064       162  DOPC      C37            25.8204852923       25.2825043196      -10.2357000009  MEMB      162             0.0000000000
     20065       162  DOPC      H7X            25.3282460513       26.2278910631      -10.5491739674  MEMB      162             0.0000000000
     20066       162  DOPC      H7Y            25.1843168937       24.9144988869       -9.4025241520  MEMB      162             0.0000000000
     20067       162  DOPC      C38            27.2225831013       25.6187542745       -9.6431574861  MEMB      162             0.0000000000
     20068       162  DOPC      H8X            27.0338735105       26.3654320764       -8.8424180086  MEMB      162             0.0000000000
     20069       162  DOPC      H8Y            27.9390917426       25.9636447445      -10.4190353800  MEMB      162             0.0000000000
     20070       162  DOPC      C39            27.9192523544       24.4914470124       -9.0240616318  MEMB      162             0.0000000000
     20071       162  DOPC      H9X            28.4161600590       23.8909293841       -9.8002461405  MEMB      162             0.0000000000
     20072       162  DOPC      C310           27.8880697548       24.1847350883       -7.7339749297  MEMB      162             0.0000000000
     20073       162  DOPC      H10X           28.5499058319       23.3884706703       -7.3625788363  MEMB      162             0.0000000000
     20074       162  DOPC      C311           27.1559108951       24.8743673800       -6.6181035001  MEMB      162             0.0000000000
     20075       162  DOPC      H11X           26.0603220966       24.9579405996       -6.7824879806  MEMB      162             0.0000000000
     20076       162  DOPC      H11Y           27.6980240221       25.8399102585       -6.7084433286  MEMB      162             0.0000000000
     20077       162  DOPC      C312           27.4395296857       24.3068064367       -5.1874289408  MEMB      162             0.0000000000
     20078       162  DOPC      H12X           27.1107831715       23.2548299599       -5.0474561362  MEMB      162             0.0000000000
     20079       162  DOPC      H12Y           26.8215976027       24.7822988345       -4.3959826867  MEMB      162             0.0000000000
     20080       162  DOPC      C313           28.9117872080       24.4892682492       -4.7804163035  MEMB      162             0.0000000000
     20081       162  DOPC      H13X           29.6075251110       24.1320915925       -5.5695266039  MEMB      162             0.0000000000
     20082       162  DOPC      H13Y           29.0669400710       25.5876735448       -4.7191441995  MEMB      162             0.0000000000
     20083       162  DOPC      C314           29.2500579261       23.7830943403       -3.4622281256  MEMB      162             0.0000000000
     20084       162  DOPC      H14X           28.2777641148       23.7316962376       -2.9271346371  MEMB      162             0.0000000000
     20085       162  DOPC      H14Y           29.6697092151       22.7544047205       -3.4588635214  MEMB      162             0.0000000000
     20086       162  DOPC      C315           30.0357134732       24.6020093707       -2.4294220401  MEMB      162             0.0000000000
     20087       162  DOPC      H15X           29.4364304372       25.4751343712       -2.0935153613  MEMB      162             0.0000000000
     20088       162  DOPC      H15Y           31.0187477934       24.8640681889       -2.8758411132  MEMB      162             0.0000000000
     20089       162  DOPC      C316           30.3105034801       23.7073060720       -1.1626979741  MEMB      162             0.0000000000
     20090       162  DOPC      H16X           31.0364698494       22.9275246457       -1.4777133986  MEMB      162             0.0000000000
     20091       162  DOPC      H16Y           30.8512972499       24.2483484004       -0.3570078304  MEMB      162             0.0000000000
     20092       162  DOPC      C317           29.1322218183       22.9930350188       -0.5800577171  MEMB      162             0.0000000000
     20093       162  DOPC      H17X           28.4837964184       23.7807495257       -0.1403168522  MEMB      162             0.0000000000
     20094       162  DOPC      H17Y           28.5942879753       22.4621677636       -1.3943829601  MEMB      162             0.0000000000
     20095       162  DOPC      C318           29.5690720204       21.9887429499        0.4773432191  MEMB      162             0.0000000000
     20096       162  DOPC      H18X           30.1421114232       21.1125048917        0.1056520096  MEMB      162             0.0000000000
     20097       162  DOPC      H18Y           30.2443360355       22.4411969317        1.2347213968  MEMB      162             0.0000000000
     20098       162  DOPC      H18Z           28.7319167556       21.4695968108        0.9911315272  MEMB      162             0.0000000000
     20099       163  DOPE      N             -20.3672558033       24.4825967183      -21.3804499774  MEMB      163             0.0000000000
     20100       163  DOPE      HN1           -20.1225714332       23.7906942825      -20.6435643705  MEMB      163             0.0000000000
     20101       163  DOPE      HN2           -20.7783931707       24.0156685290      -22.2138431498  MEMB      163             0.0000000000
     20102       163  DOPE      HN3           -19.4385780833       24.8883523425      -21.6139456078  MEMB      163             0.0000000000
     20103       163  DOPE      C12           -21.0095611061       25.7378825327      -20.9063083393  MEMB      163             0.0000000000
     20104       163  DOPE      H12A          -22.0680239515       25.5316045053      -20.6390501313  MEMB      163             0.0000000000
     20105       163  DOPE      H12B          -20.8280937941       26.3990120912      -21.7805498294  MEMB      163             0.0000000000
     20106       163  DOPE      C11           -20.2186003248       26.3163351417      -19.7486748915  MEMB      163             0.0000000000
     20107       163  DOPE      H11A          -19.1670680617       26.5594860252      -20.0122627399  MEMB      163             0.0000000000
     20108       163  DOPE      H11B          -20.2622884939       25.5093752971      -18.9862916460  MEMB      163             0.0000000000
     20109       163  DOPE      P             -20.4069962847       28.2838575334      -18.0114058077  MEMB      163             0.0000000000
     20110       163  DOPE      O13           -21.5793251678       28.7009864825      -17.1821836697  MEMB      163             0.0000000000
     20111       163  DOPE      O14           -19.5382217922       29.3662577448      -18.5320845571  MEMB      163             0.0000000000
     20112       163  DOPE      O11           -19.6176112448       27.3037510197      -17.0975891199  MEMB      163             0.0000000000
     20113       163  DOPE      O12           -20.9849922908       27.4166584599      -19.1413036369  MEMB      163             0.0000000000
     20114       163  DOPE      C1            -18.2026198303       27.2921864954      -17.1419943701  MEMB      163             0.0000000000
     20115       163  DOPE      HA            -17.8432550366       28.2711220772      -16.7587669471  MEMB      163             0.0000000000
     20116       163  DOPE      HB            -17.8987178219       27.0810654603      -18.1895593865  MEMB      163             0.0000000000
     20117       163  DOPE      C2            -17.6653009078       26.0920763564      -16.2650815721  MEMB      163             0.0000000000
     20118       163  DOPE      HS            -16.8238504591       25.6730093105      -16.8572516884  MEMB      163             0.0000000000
     20119       163  DOPE      O21           -18.6876293301       25.0930252712      -16.0211706293  MEMB      163             0.0000000000
     20120       163  DOPE      C21           -18.9946779540       24.3653921629      -17.0305797970  MEMB      163             0.0000000000
     20121       163  DOPE      O22           -18.3646807444       24.2266119396      -18.0753977692  MEMB      163             0.0000000000
     20122       163  DOPE      C22           -20.2440645819       23.5259579632      -16.7930760097  MEMB      163             0.0000000000
     20123       163  DOPE      H2R           -19.9394916233       22.5787131667      -16.2988255813  MEMB      163             0.0000000000
     20124       163  DOPE      H2S           -20.6945396866       23.4326306258      -17.8043539750  MEMB      163             0.0000000000
     20125       163  DOPE      C3            -17.2237707899       26.7334508699      -14.8579507771  MEMB      163             0.0000000000
     20126       163  DOPE      HX            -16.2600141768       27.2587845741      -15.0297607256  MEMB      163             0.0000000000
     20127       163  DOPE      HY            -17.0240129189       25.9410196620      -14.1053082700  MEMB      163             0.0000000000
     20128       163  DOPE      O31           -18.1794575645       27.7376094515      -14.4413009168  MEMB      163             0.0000000000
     20129       163  DOPE      C31           -19.1222282866       27.2853196955      -13.5377482940  MEMB      163             0.0000000000
     20130       163  DOPE      O32           -19.0654178066       26.1774143857      -13.0765709883  MEMB      163             0.0000000000
     20131       163  DOPE      C32           -20.1469532516       28.4717693489      -13.1820475444  MEMB      163             0.0000000000
     20132       163  DOPE      H2X           -20.0088987722       28.6739086577      -12.0983494207  MEMB      163             0.0000000000
     20133       163  DOPE      H2Y           -19.8475305533       29.3011486319      -13.8579151141  MEMB      163             0.0000000000
     20134       163  DOPE      C23           -21.2516858744       24.2996499436      -15.8291396665  MEMB      163             0.0000000000
     20135       163  DOPE      H3R           -21.6329479457       25.1801076059      -16.3892776112  MEMB      163             0.0000000000
     20136       163  DOPE      H3S           -20.6319182820       24.6817884062      -14.9899854850  MEMB      163             0.0000000000
     20137       163  DOPE      C24           -22.4189046535       23.4581856572      -15.3194890009  MEMB      163             0.0000000000
     20138       163  DOPE      H4R           -22.0005295062       22.4954594743      -14.9555634165  MEMB      163             0.0000000000
     20139       163  DOPE      H4S           -23.2008826625       23.3585627003      -16.1023723849  MEMB      163             0.0000000000
     20140       163  DOPE      C25           -23.1381278471       24.2040966994      -14.1724378850  MEMB      163             0.0000000000
     20141       163  DOPE      H5R           -24.1579948443       23.7792797805      -14.0552934826  MEMB      163             0.0000000000
     20142       163  DOPE      H5S           -23.2652722076       25.2936055619      -14.3488627799  MEMB      163             0.0000000000
     20143       163  DOPE      C26           -22.4288121817       23.9978926015      -12.8116792228  MEMB      163             0.0000000000
     20144       163  DOPE      H6R           -21.4731372899       24.5534317228      -12.9229575831  MEMB      163             0.0000000000
     20145       163  DOPE      H6S           -22.3086580512       22.8954406669      -12.7447182962  MEMB      163             0.0000000000
     20146       163  DOPE      C27           -23.2169373417       24.4848101616      -11.6008680294  MEMB      163             0.0000000000
     20147       163  DOPE      H7R           -24.1509922381       23.8932993092      -11.4914281276  MEMB      163             0.0000000000
     20148       163  DOPE      H7S           -23.4728693724       25.5278028762      -11.8854482382  MEMB      163             0.0000000000
     20149       163  DOPE      C28           -22.3834144630       24.3514707503      -10.3031070484  MEMB      163             0.0000000000
     20150       163  DOPE      H8R           -22.0058423100       23.3066447957      -10.2931545761  MEMB      163             0.0000000000
     20151       163  DOPE      H8S           -23.1279596853       24.4775677832       -9.4881995244  MEMB      163             0.0000000000
     20152       163  DOPE      C29           -21.2302662562       25.3389930886      -10.1598663201  MEMB      163             0.0000000000
     20153       163  DOPE      H9R           -21.2509453034       26.2654330416      -10.7525557771  MEMB      163             0.0000000000
     20154       163  DOPE      C210          -20.1952639652       25.1792063339       -9.3343592249  MEMB      163             0.0000000000
     20155       163  DOPE      H10R          -19.4052158998       25.9444731166       -9.3205451750  MEMB      163             0.0000000000
     20156       163  DOPE      C211          -20.0819477401       24.0269960018       -8.4368376768  MEMB      163             0.0000000000
     20157       163  DOPE      H11R          -19.1280773684       23.4707832671       -8.5596363302  MEMB      163             0.0000000000
     20158       163  DOPE      H11S          -20.9104469634       23.2868189997       -8.4437554935  MEMB      163             0.0000000000
     20159       163  DOPE      C212          -20.1285920474       24.5419337619       -7.0504882387  MEMB      163             0.0000000000
     20160       163  DOPE      H12R          -20.8684702015       25.3663585455       -6.9654883657  MEMB      163             0.0000000000
     20161       163  DOPE      H12S          -19.2066576310       25.1278445091       -6.8478392524  MEMB      163             0.0000000000
     20162       163  DOPE      C213          -20.3034084347       23.4424627443       -5.9834928325  MEMB      163             0.0000000000
     20163       163  DOPE      H13R          -19.7146814195       22.5956429495       -6.3965520750  MEMB      163             0.0000000000
     20164       163  DOPE      H13S          -21.4026121469       23.2932800153       -5.9217149634  MEMB      163             0.0000000000
     20165       163  DOPE      C214          -19.6847817856       23.7194062732       -4.6160987722  MEMB      163             0.0000000000
     20166       163  DOPE      H14R          -18.6066915106       23.9214663793       -4.7927749309  MEMB      163             0.0000000000
     20167       163  DOPE      H14S          -19.6701204054       22.8857340835       -3.8818672064  MEMB      163             0.0000000000
     20168       163  DOPE      C215          -20.3390245912       24.9354080749       -3.8478543019  MEMB      163             0.0000000000
     20169       163  DOPE      H15R          -21.4219730409       24.6896379541       -3.8816255372  MEMB      163             0.0000000000
     20170       163  DOPE      H15S          -20.2397259940       25.8763970954       -4.4300920335  MEMB      163             0.0000000000
     20171       163  DOPE      C216          -19.9205168992       24.9684605849       -2.3831061332  MEMB      163             0.0000000000
     20172       163  DOPE      H16R          -19.9532626169       23.9539098787       -1.9315147449  MEMB      163             0.0000000000
     20173       163  DOPE      H16S          -20.6554971851       25.5945198186       -1.8334019873  MEMB      163             0.0000000000
     20174       163  DOPE      C217          -18.5659401064       25.5239424047       -2.1459538669  MEMB      163             0.0000000000
     20175       163  DOPE      H17R          -17.7882739500       24.8757729344       -2.6035929946  MEMB      163             0.0000000000
     20176       163  DOPE      H17S          -18.4222865281       25.3690990196       -1.0552163785  MEMB      163             0.0000000000
     20177       163  DOPE      C218          -18.4671655746       27.0010216122       -2.5524726844  MEMB      163             0.0000000000
     20178       163  DOPE      H18R          -17.3806817485       27.2227643465       -2.4838885889  MEMB      163             0.0000000000
     20179       163  DOPE      H18S          -19.0555825571       27.6349783053       -1.8552041141  MEMB      163             0.0000000000
     20180       163  DOPE      H18T          -18.8663898769       27.1914562777       -3.5716283305  MEMB      163             0.0000000000
     20181       163  DOPE      C33           -21.6195689553       28.0287697619      -13.3343919096  MEMB      163             0.0000000000
     20182       163  DOPE      H3X           -22.0055256184       27.3383674486      -12.5541978211  MEMB      163             0.0000000000
     20183       163  DOPE      H3Y           -21.8596590438       27.4669608419      -14.2623189124  MEMB      163             0.0000000000
     20184       163  DOPE      C34           -22.5612147384       29.2424571923      -13.1943307490  MEMB      163             0.0000000000
     20185       163  DOPE      H4X           -22.4422614155       30.0428873558      -13.9555682211  MEMB      163             0.0000000000
     20186       163  DOPE      H4Y           -23.5526620251       28.7952752911      -13.4210056022  MEMB      163             0.0000000000
     20187       163  DOPE      C35           -22.5150617792       29.9519839165      -11.8717442245  MEMB      163             0.0000000000
     20188       163  DOPE      H5X           -23.2607471986       30.7717747901      -11.9505938490  MEMB      163             0.0000000000
     20189       163  DOPE      H5Y           -21.5214988602       30.3859155329      -11.6291394745  MEMB      163             0.0000000000
     20190       163  DOPE      C36           -22.9567944823       29.1773809728      -10.6159576619  MEMB      163             0.0000000000
     20191       163  DOPE      H6X           -22.4661063675       28.1842199539      -10.5312388621  MEMB      163             0.0000000000
     20192       163  DOPE      H6Y           -24.0251876048       29.0297454994      -10.8825306061  MEMB      163             0.0000000000
     20193       163  DOPE      C37           -22.8663838740       29.9408169081       -9.3130655719  MEMB      163             0.0000000000
     20194       163  DOPE      H7X           -23.2317245862       30.9807080693       -9.4526159183  MEMB      163             0.0000000000
     20195       163  DOPE      H7Y           -23.5433935204       29.5029162519       -8.5487221847  MEMB      163             0.0000000000
     20196       163  DOPE      C38           -21.3622463765       30.1008297440       -8.8005125437  MEMB      163             0.0000000000
     20197       163  DOPE      H8X           -21.5055318151       30.9981004654       -8.1612202357  MEMB      163             0.0000000000
     20198       163  DOPE      H8Y           -20.6076739983       30.2626384222       -9.5997375092  MEMB      163             0.0000000000
     20199       163  DOPE      C39           -21.0054070895       28.9148342793       -8.0413151710  MEMB      163             0.0000000000
     20200       163  DOPE      H9X           -20.9541277902       27.9452935290       -8.5583850070  MEMB      163             0.0000000000
     20201       163  DOPE      C310          -20.8556090112       28.8388028750       -6.7016425417  MEMB      163             0.0000000000
     20202       163  DOPE      H10X          -20.5435107063       27.9232130440       -6.1779153663  MEMB      163             0.0000000000
     20203       163  DOPE      C311          -20.9901414519       29.9285049017       -5.7372022013  MEMB      163             0.0000000000
     20204       163  DOPE      H11X          -20.2383548415       29.8419783583       -4.9237826418  MEMB      163             0.0000000000
     20205       163  DOPE      H11Y          -20.7818880581       30.9070601535       -6.2202970019  MEMB      163             0.0000000000
     20206       163  DOPE      C312          -22.3652976514       30.0798925677       -5.1213425387  MEMB      163             0.0000000000
     20207       163  DOPE      H12X          -22.9476469809       30.3883198709       -6.0158049596  MEMB      163             0.0000000000
     20208       163  DOPE      H12Y          -22.3475979902       30.8991047112       -4.3710765545  MEMB      163             0.0000000000
     20209       163  DOPE      C313          -23.0887097786       28.8295960771       -4.4754903492  MEMB      163             0.0000000000
     20210       163  DOPE      H13X          -24.1919723531       28.9604789382       -4.4740603719  MEMB      163             0.0000000000
     20211       163  DOPE      H13Y          -22.8082155023       27.9924528761       -5.1499050656  MEMB      163             0.0000000000
     20212       163  DOPE      C314          -22.5376989193       28.4729944625       -3.0672035715  MEMB      163             0.0000000000
     20213       163  DOPE      H14X          -22.9571278362       29.2994323219       -2.4545038329  MEMB      163             0.0000000000
     20214       163  DOPE      H14Y          -21.4268691648       28.4910074423       -3.0598775072  MEMB      163             0.0000000000
     20215       163  DOPE      C315          -23.0231242393       27.1252193777       -2.4931528055  MEMB      163             0.0000000000
     20216       163  DOPE      H15X          -22.3045800547       26.4882857656       -3.0520186014  MEMB      163             0.0000000000
     20217       163  DOPE      H15Y          -24.0903069252       26.8537195361       -2.6405633626  MEMB      163             0.0000000000
     20218       163  DOPE      C316          -22.6973804045       27.0605718722       -0.9459380320  MEMB      163             0.0000000000
     20219       163  DOPE      H16X          -23.2989260603       27.8692920178       -0.4785659425  MEMB      163             0.0000000000
     20220       163  DOPE      H16Y          -21.6212337136       27.3280003324       -0.8772988599  MEMB      163             0.0000000000
     20221       163  DOPE      C317          -22.9009310097       25.7199561189       -0.2762269270  MEMB      163             0.0000000000
     20222       163  DOPE      H17X          -23.9905791975       25.5098437438       -0.2229255125  MEMB      163             0.0000000000
     20223       163  DOPE      H17Y          -22.5059093288       24.9153501709       -0.9326472373  MEMB      163             0.0000000000
     20224       163  DOPE      C318          -22.3537717314       25.4697048026        1.1839135803  MEMB      163             0.0000000000
     20225       163  DOPE      H18X          -22.8085331531       24.5970540378        1.6996584474  MEMB      163             0.0000000000
     20226       163  DOPE      H18Y          -21.2477361939       25.5694524791        1.1514015927  MEMB      163             0.0000000000
     20227       163  DOPE      H18Z          -22.7804950960       26.3013059188        1.7844703216  MEMB      163             0.0000000000
     20228       164  DOPE      N             -35.2516746414        4.6003043745      -20.0784074901  MEMB      164             0.0000000000
     20229       164  DOPE      HN1           -35.0354269623        3.6703719929      -19.6660206993  MEMB      164             0.0000000000
     20230       164  DOPE      HN2           -36.1116197204        4.5629549100      -20.6621021820  MEMB      164             0.0000000000
     20231       164  DOPE      HN3           -34.5653220270        4.9917748067      -20.7546255676  MEMB      164             0.0000000000
     20232       164  DOPE      C12           -35.5866208568        5.6640330402      -19.0434924526  MEMB      164             0.0000000000
     20233       164  DOPE      H12A          -35.0879550018        5.5214672764      -18.0609811510  MEMB      164             0.0000000000
     20234       164  DOPE      H12B          -36.6904306263        5.7471771399      -18.9485595144  MEMB      164             0.0000000000
     20235       164  DOPE      C11           -35.0310660964        7.0576706982      -19.4742437484  MEMB      164             0.0000000000
     20236       164  DOPE      H11A          -35.3947413498        7.7359702105      -18.6730127962  MEMB      164             0.0000000000
     20237       164  DOPE      H11B          -35.5643530522        7.3195223774      -20.4130513710  MEMB      164             0.0000000000
     20238       164  DOPE      P             -32.5652119851        7.4831564001      -18.6468406690  MEMB      164             0.0000000000
     20239       164  DOPE      O13           -33.2319074843        8.0083352551      -17.4064374167  MEMB      164             0.0000000000
     20240       164  DOPE      O14           -31.5383335528        8.3676758561      -19.2849434423  MEMB      164             0.0000000000
     20241       164  DOPE      O11           -31.9684943615        6.0616250668      -18.3145694492  MEMB      164             0.0000000000
     20242       164  DOPE      O12           -33.6606910199        7.1760336316      -19.7510653206  MEMB      164             0.0000000000
     20243       164  DOPE      C1            -30.6555750106        5.9313201967      -17.7539452557  MEMB      164             0.0000000000
     20244       164  DOPE      HA            -30.0145016388        6.8345093564      -17.8410958443  MEMB      164             0.0000000000
     20245       164  DOPE      HB            -30.0485951009        5.1208503292      -18.2111487256  MEMB      164             0.0000000000
     20246       164  DOPE      C2            -30.7023566094        5.5231617528      -16.2392394859  MEMB      164             0.0000000000
     20247       164  DOPE      HS            -30.1139359351        4.5968379157      -16.0660161489  MEMB      164             0.0000000000
     20248       164  DOPE      O21           -32.0303603610        5.5187691032      -15.7476021164  MEMB      164             0.0000000000
     20249       164  DOPE      C21           -32.5604303298        4.3245646005      -15.8097692616  MEMB      164             0.0000000000
     20250       164  DOPE      O22           -31.9960121051        3.3689075615      -16.3077162209  MEMB      164             0.0000000000
     20251       164  DOPE      C22           -33.9595212309        4.1601067572      -15.1671651740  MEMB      164             0.0000000000
     20252       164  DOPE      H2R           -34.4080121556        3.1496362726      -15.2772860279  MEMB      164             0.0000000000
     20253       164  DOPE      H2S           -34.6911700686        4.8324385421      -15.6641370735  MEMB      164             0.0000000000
     20254       164  DOPE      C3            -29.8602237253        6.5914428742      -15.5319714137  MEMB      164             0.0000000000
     20255       164  DOPE      HX            -30.1996573519        7.5984945754      -15.8559353373  MEMB      164             0.0000000000
     20256       164  DOPE      HY            -28.8004364962        6.5610922439      -15.8640122062  MEMB      164             0.0000000000
     20257       164  DOPE      O31           -30.0309671554        6.4318068833      -14.1217280616  MEMB      164             0.0000000000
     20258       164  DOPE      C31           -30.7871085371        7.2179527830      -13.4316509114  MEMB      164             0.0000000000
     20259       164  DOPE      O32           -31.5373581927        8.0110663786      -13.8272550049  MEMB      164             0.0000000000
     20260       164  DOPE      C32           -30.6970956279        6.9252867935      -11.8760162942  MEMB      164             0.0000000000
     20261       164  DOPE      H2X           -31.6708019522        6.5286139301      -11.5170352028  MEMB      164             0.0000000000
     20262       164  DOPE      H2Y           -29.9577209842        6.1102109432      -11.7233828554  MEMB      164             0.0000000000
     20263       164  DOPE      C23           -33.8162593882        4.5383262138      -13.6983957951  MEMB      164             0.0000000000
     20264       164  DOPE      H3R           -34.8477680481        4.5057103294      -13.2869992855  MEMB      164             0.0000000000
     20265       164  DOPE      H3S           -33.5067705209        5.5937108086      -13.5412309280  MEMB      164             0.0000000000
     20266       164  DOPE      C24           -33.0487816557        3.4898125252      -12.8258842687  MEMB      164             0.0000000000
     20267       164  DOPE      H4R           -32.0305858047        3.5154758937      -13.2696630726  MEMB      164             0.0000000000
     20268       164  DOPE      H4S           -33.5536073099        2.5204877677      -13.0255883893  MEMB      164             0.0000000000
     20269       164  DOPE      C25           -32.8577916120        3.7452864892      -11.3123702792  MEMB      164             0.0000000000
     20270       164  DOPE      H5R           -33.8870278952        3.7008128233      -10.8964182242  MEMB      164             0.0000000000
     20271       164  DOPE      H5S           -32.6173881465        4.8203277435      -11.1681019551  MEMB      164             0.0000000000
     20272       164  DOPE      C26           -31.8346501008        2.9016530416      -10.5557018876  MEMB      164             0.0000000000
     20273       164  DOPE      H6R           -30.8249576778        3.0556710299      -10.9928752424  MEMB      164             0.0000000000
     20274       164  DOPE      H6S           -32.0151374208        1.8127671802      -10.6824822547  MEMB      164             0.0000000000
     20275       164  DOPE      C27           -31.7505776561        3.1419217387       -9.0519402388  MEMB      164             0.0000000000
     20276       164  DOPE      H7R           -31.1602639904        4.0745965793       -8.9255717072  MEMB      164             0.0000000000
     20277       164  DOPE      H7S           -31.0577609936        2.3271379524       -8.7511858116  MEMB      164             0.0000000000
     20278       164  DOPE      C28           -33.0305941570        3.0416617221       -8.1797632084  MEMB      164             0.0000000000
     20279       164  DOPE      H8R           -33.4404284648        2.0161601829       -8.3010195490  MEMB      164             0.0000000000
     20280       164  DOPE      H8S           -33.7626466295        3.7332580949       -8.6489272487  MEMB      164             0.0000000000
     20281       164  DOPE      C29           -32.8540536269        3.3507681072       -6.7291821861  MEMB      164             0.0000000000
     20282       164  DOPE      H9R           -32.4015762798        2.5208503637       -6.1665979748  MEMB      164             0.0000000000
     20283       164  DOPE      C210          -33.1496647928        4.5471821555       -6.0644634748  MEMB      164             0.0000000000
     20284       164  DOPE      H10R          -33.0735725634        4.5325747171       -4.9671959642  MEMB      164             0.0000000000
     20285       164  DOPE      C211          -33.6472324756        5.7968214959       -6.7362480221  MEMB      164             0.0000000000
     20286       164  DOPE      H11R          -33.7199260468        5.6568164257       -7.8359918190  MEMB      164             0.0000000000
     20287       164  DOPE      H11S          -32.9262260992        6.6277200613       -6.5810766808  MEMB      164             0.0000000000
     20288       164  DOPE      C212          -34.9519976431        6.1556158673       -6.1521790685  MEMB      164             0.0000000000
     20289       164  DOPE      H12R          -34.9191975077        6.4898813397       -5.0931642455  MEMB      164             0.0000000000
     20290       164  DOPE      H12S          -35.6512962513        5.2975673814       -6.2473359674  MEMB      164             0.0000000000
     20291       164  DOPE      C213          -35.7435758535        7.3077175512       -6.8516815716  MEMB      164             0.0000000000
     20292       164  DOPE      H13R          -36.7681355971        7.4433194934       -6.4439923186  MEMB      164             0.0000000000
     20293       164  DOPE      H13S          -36.0012172347        7.0270150907       -7.8953041187  MEMB      164             0.0000000000
     20294       164  DOPE      C214          -34.9715960118        8.6144282968       -6.9820606861  MEMB      164             0.0000000000
     20295       164  DOPE      H14R          -35.4772316507        9.2773512872       -7.7163540785  MEMB      164             0.0000000000
     20296       164  DOPE      H14S          -34.0259731992        8.2980458910       -7.4719790187  MEMB      164             0.0000000000
     20297       164  DOPE      C215          -34.7368664870        9.2504281915       -5.5904692152  MEMB      164             0.0000000000
     20298       164  DOPE      H15R          -34.2130457845       10.2001958890       -5.8310394430  MEMB      164             0.0000000000
     20299       164  DOPE      H15S          -34.1163512467        8.5159615710       -5.0338358710  MEMB      164             0.0000000000
     20300       164  DOPE      C216          -35.9839734441        9.4112305475       -4.7880116801  MEMB      164             0.0000000000
     20301       164  DOPE      H16R          -36.3163420357        8.3908920167       -4.5003287061  MEMB      164             0.0000000000
     20302       164  DOPE      H16S          -36.7575500697        9.6966828812       -5.5326037517  MEMB      164             0.0000000000
     20303       164  DOPE      C217          -35.8834121372       10.3966261667       -3.5910045844  MEMB      164             0.0000000000
     20304       164  DOPE      H17R          -35.8798909707       11.4355980620       -3.9845091621  MEMB      164             0.0000000000
     20305       164  DOPE      H17S          -34.8881301801       10.2673058081       -3.1145466658  MEMB      164             0.0000000000
     20306       164  DOPE      C218          -36.9074312040       10.2657629016       -2.5120565955  MEMB      164             0.0000000000
     20307       164  DOPE      H18R          -36.7801193597        9.3114008686       -1.9577047904  MEMB      164             0.0000000000
     20308       164  DOPE      H18S          -37.9563465296       10.2270937491       -2.8762012614  MEMB      164             0.0000000000
     20309       164  DOPE      H18T          -36.9723730617       11.1095621503       -1.7922604019  MEMB      164             0.0000000000
     20310       164  DOPE      C33           -30.3108351740        8.2059154215      -11.1705668411  MEMB      164             0.0000000000
     20311       164  DOPE      H3X           -31.0412706587        8.9896982059      -11.4646240422  MEMB      164             0.0000000000
     20312       164  DOPE      H3Y           -29.2731150500        8.4526557452      -11.4813350770  MEMB      164             0.0000000000
     20313       164  DOPE      C34           -30.4930943195        8.0419249321       -9.7037543829  MEMB      164             0.0000000000
     20314       164  DOPE      H4X           -31.4791678460        7.5600510012       -9.5311923324  MEMB      164             0.0000000000
     20315       164  DOPE      H4Y           -29.7324066481        7.4130273713       -9.1936931691  MEMB      164             0.0000000000
     20316       164  DOPE      C35           -30.4302408171        9.3274087560       -8.8665751109  MEMB      164             0.0000000000
     20317       164  DOPE      H5X           -31.1148370191       10.0153439683       -9.4073095921  MEMB      164             0.0000000000
     20318       164  DOPE      H5Y           -29.3925100804        9.7219177924       -8.9089855511  MEMB      164             0.0000000000
     20319       164  DOPE      C36           -30.8624066718        9.1720546415       -7.4697807040  MEMB      164             0.0000000000
     20320       164  DOPE      H6X           -31.8411400532        8.6486091352       -7.4207230397  MEMB      164             0.0000000000
     20321       164  DOPE      H6Y           -31.0113680450       10.2469856400       -7.2317569994  MEMB      164             0.0000000000
     20322       164  DOPE      C37           -29.7749668283        8.6944706250       -6.4056618772  MEMB      164             0.0000000000
     20323       164  DOPE      H7X           -28.7776350126        9.0444654085       -6.7479393052  MEMB      164             0.0000000000
     20324       164  DOPE      H7Y           -29.9992330538        9.2867028603       -5.4928169062  MEMB      164             0.0000000000
     20325       164  DOPE      C38           -29.9880978468        7.2666514464       -5.9393361766  MEMB      164             0.0000000000
     20326       164  DOPE      H8X           -29.6320371697        6.5355868862       -6.6963604737  MEMB      164             0.0000000000
     20327       164  DOPE      H8Y           -31.0540731909        7.1697730960       -5.6416236815  MEMB      164             0.0000000000
     20328       164  DOPE      C39           -29.1159622562        6.8474115811       -4.7451499579  MEMB      164             0.0000000000
     20329       164  DOPE      H9X           -28.0508883024        7.0251225227       -4.9549976424  MEMB      164             0.0000000000
     20330       164  DOPE      C310          -29.4149697851        6.0678934103       -3.6585475701  MEMB      164             0.0000000000
     20331       164  DOPE      H10X          -28.7065013629        6.0164389385       -2.8186507711  MEMB      164             0.0000000000
     20332       164  DOPE      C311          -30.7437430162        5.4134998418       -3.3281990130  MEMB      164             0.0000000000
     20333       164  DOPE      H11X          -31.1488707813        4.8462927240       -4.1933404640  MEMB      164             0.0000000000
     20334       164  DOPE      H11Y          -30.5594029183        4.6885696356       -2.5067269626  MEMB      164             0.0000000000
     20335       164  DOPE      C312          -31.7746041947        6.4593928298       -2.8385144259  MEMB      164             0.0000000000
     20336       164  DOPE      H12X          -32.7193761431        6.0275879012       -2.4444699584  MEMB      164             0.0000000000
     20337       164  DOPE      H12Y          -32.1515325807        7.2129199943       -3.5626994357  MEMB      164             0.0000000000
     20338       164  DOPE      C313          -31.4023669009        7.2850489732       -1.5646367823  MEMB      164             0.0000000000
     20339       164  DOPE      H13X          -30.3990356539        7.7034041395       -1.7940403161  MEMB      164             0.0000000000
     20340       164  DOPE      H13Y          -32.1203035326        8.1301649592       -1.4963206277  MEMB      164             0.0000000000
     20341       164  DOPE      C314          -31.2458049654        6.4833624737       -0.2997439052  MEMB      164             0.0000000000
     20342       164  DOPE      H14X          -30.4063201209        5.7562095204       -0.2708544434  MEMB      164             0.0000000000
     20343       164  DOPE      H14Y          -32.1298455972        5.8122069911       -0.2513341618  MEMB      164             0.0000000000
     20344       164  DOPE      C315          -31.2622467034        7.3228712873        1.0206229791  MEMB      164             0.0000000000
     20345       164  DOPE      H15X          -31.2036889437        6.6014443389        1.8634957383  MEMB      164             0.0000000000
     20346       164  DOPE      H15Y          -32.2427057985        7.8333117002        1.1322995210  MEMB      164             0.0000000000
     20347       164  DOPE      C316          -29.9945206698        8.2005357274        1.2326103211  MEMB      164             0.0000000000
     20348       164  DOPE      H16X          -30.1982814979        8.6775743240        2.2150756951  MEMB      164             0.0000000000
     20349       164  DOPE      H16Y          -29.8510242831        8.8820287023        0.3669913556  MEMB      164             0.0000000000
     20350       164  DOPE      C317          -28.6670320408        7.4370619891        1.6157359908  MEMB      164             0.0000000000
     20351       164  DOPE      H17X          -27.9033467730        8.2144686582        1.8319406164  MEMB      164             0.0000000000
     20352       164  DOPE      H17Y          -28.8335552197        6.8417999664        2.5389118741  MEMB      164             0.0000000000
     20353       164  DOPE      C318          -27.8995864393        6.5298975028        0.5832335703  MEMB      164             0.0000000000
     20354       164  DOPE      H18X          -28.4367794286        5.5578125693        0.5550232086  MEMB      164             0.0000000000
     20355       164  DOPE      H18Y          -27.8853106637        6.9920881031       -0.4269640792  MEMB      164             0.0000000000
     20356       164  DOPE      H18Z          -26.8533301259        6.4959470492        0.9554096573  MEMB      164             0.0000000000
     20357       165  DOPC      N             -33.3808995966       -9.0551170602      -20.3644021320  MEMB      165             0.0000000000
     20358       165  DOPC      C12           -34.1517587106       -7.8394502091      -20.8591933119  MEMB      165             0.0000000000
     20359       165  DOPC      H12A          -34.9661954730       -8.2114822578      -21.4630848434  MEMB      165             0.0000000000
     20360       165  DOPC      H12B          -33.4160575432       -7.2234653196      -21.3548811902  MEMB      165             0.0000000000
     20361       165  DOPC      C13           -34.3262432484       -9.9413611017      -19.5960820712  MEMB      165             0.0000000000
     20362       165  DOPC      H13A          -33.9588968372      -10.9510336324      -19.7057104300  MEMB      165             0.0000000000
     20363       165  DOPC      H13B          -34.2630490645       -9.7055901517      -18.5440276187  MEMB      165             0.0000000000
     20364       165  DOPC      H13C          -35.3330893739       -9.9695010729      -19.9857858127  MEMB      165             0.0000000000
     20365       165  DOPC      C14           -32.2850806719       -8.5462119708      -19.4542632152  MEMB      165             0.0000000000
     20366       165  DOPC      H14A          -31.6770710592       -7.9434569141      -20.1126025528  MEMB      165             0.0000000000
     20367       165  DOPC      H14B          -32.7387082950       -8.0226475229      -18.6257088448  MEMB      165             0.0000000000
     20368       165  DOPC      H14C          -31.6815462299       -9.3635329351      -19.0880218849  MEMB      165             0.0000000000
     20369       165  DOPC      C15           -32.9035953834       -9.7146355294      -21.6176994754  MEMB      165             0.0000000000
     20370       165  DOPC      H15A          -32.3851877245      -10.6164682823      -21.3272668726  MEMB      165             0.0000000000
     20371       165  DOPC      H15B          -32.1123306612       -9.0810176689      -21.9902966138  MEMB      165             0.0000000000
     20372       165  DOPC      H15C          -33.6332491776       -9.9135659833      -22.3886935970  MEMB      165             0.0000000000
     20373       165  DOPC      C11           -34.7170272943       -6.9404070124      -19.7739700696  MEMB      165             0.0000000000
     20374       165  DOPC      H11A          -33.9347326958       -6.2565978185      -19.3805986288  MEMB      165             0.0000000000
     20375       165  DOPC      H11B          -35.4281711922       -6.2790067698      -20.3135487164  MEMB      165             0.0000000000
     20376       165  DOPC      P             -35.8704567965       -6.8105552281      -17.4620259275  MEMB      165             0.0000000000
     20377       165  DOPC      O13           -36.5030451253       -5.5528254987      -17.8757654524  MEMB      165             0.0000000000
     20378       165  DOPC      O14           -34.7889838383       -6.6205327852      -16.4816496019  MEMB      165             0.0000000000
     20379       165  DOPC      O12           -35.4460230580       -7.6238075159      -18.7144842999  MEMB      165             0.0000000000
     20380       165  DOPC      O11           -37.0110520909       -7.7542442520      -16.8004644402  MEMB      165             0.0000000000
     20381       165  DOPC      C1            -38.1557833890       -7.8848141999      -17.4634769025  MEMB      165             0.0000000000
     20382       165  DOPC      HA            -38.0755347803       -7.9727214849      -18.5680824422  MEMB      165             0.0000000000
     20383       165  DOPC      HB            -38.8429479755       -7.0255322382      -17.3093331847  MEMB      165             0.0000000000
     20384       165  DOPC      C2            -38.9868907230       -9.1998502667      -17.1497680050  MEMB      165             0.0000000000
     20385       165  DOPC      HS            -40.0436409726       -9.2015146513      -17.4926916708  MEMB      165             0.0000000000
     20386       165  DOPC      O21           -39.1227481802       -9.5332303169      -15.7550946638  MEMB      165             0.0000000000
     20387       165  DOPC      C21           -39.7757381934       -8.5991562969      -14.9856208853  MEMB      165             0.0000000000
     20388       165  DOPC      O22           -40.4368266189       -7.6864674246      -15.4302682134  MEMB      165             0.0000000000
     20389       165  DOPC      C22           -39.3566407873       -8.7249949458      -13.5466366847  MEMB      165             0.0000000000
     20390       165  DOPC      H2R           -39.4246163558       -9.7509599021      -13.1258081723  MEMB      165             0.0000000000
     20391       165  DOPC      H2S           -39.8233772295       -8.0086000134      -12.8372308361  MEMB      165             0.0000000000
     20392       165  DOPC      C3            -38.3652209975      -10.4465261466      -17.8813702070  MEMB      165             0.0000000000
     20393       165  DOPC      HX            -38.4092706501      -10.2197621885      -18.9680894723  MEMB      165             0.0000000000
     20394       165  DOPC      HY            -39.0327586974      -11.3321870650      -17.9470873165  MEMB      165             0.0000000000
     20395       165  DOPC      O31           -37.0087930378      -10.7126209559      -17.5095094583  MEMB      165             0.0000000000
     20396       165  DOPC      C31           -36.8518201518      -11.4736975974      -16.4340056428  MEMB      165             0.0000000000
     20397       165  DOPC      O32           -37.6431898389      -12.2946586588      -15.9766618781  MEMB      165             0.0000000000
     20398       165  DOPC      C32           -35.4039773440      -11.2976693552      -15.8074834109  MEMB      165             0.0000000000
     20399       165  DOPC      H2X           -34.8022970797      -12.1141972490      -16.2608974972  MEMB      165             0.0000000000
     20400       165  DOPC      H2Y           -34.9994050938      -10.3315750750      -16.1780289492  MEMB      165             0.0000000000
     20401       165  DOPC      C23           -37.8246111799       -8.3107424045      -13.4887052047  MEMB      165             0.0000000000
     20402       165  DOPC      H3R           -37.8083617001       -7.4495671624      -14.1904416356  MEMB      165             0.0000000000
     20403       165  DOPC      H3S           -37.2301012209       -9.1119127232      -13.9775867109  MEMB      165             0.0000000000
     20404       165  DOPC      C24           -37.3947334858       -8.0434964053      -11.9700557770  MEMB      165             0.0000000000
     20405       165  DOPC      H4R           -37.6829835083       -8.9887027304      -11.4622978775  MEMB      165             0.0000000000
     20406       165  DOPC      H4S           -37.8913932234       -7.1168427913      -11.6109412686  MEMB      165             0.0000000000
     20407       165  DOPC      C25           -35.9585173847       -7.9069582297      -11.7217047250  MEMB      165             0.0000000000
     20408       165  DOPC      H5R           -35.4348643106       -7.0855199836      -12.2558840089  MEMB      165             0.0000000000
     20409       165  DOPC      H5S           -35.6024065669       -8.8397108716      -12.2090226074  MEMB      165             0.0000000000
     20410       165  DOPC      C26           -35.4842633803       -8.0516605349      -10.2470279961  MEMB      165             0.0000000000
     20411       165  DOPC      H6R           -34.4092026721       -8.3319397212      -10.2440567800  MEMB      165             0.0000000000
     20412       165  DOPC      H6S           -35.9548012723       -8.7933757487       -9.5667535999  MEMB      165             0.0000000000
     20413       165  DOPC      C27           -35.5825355345       -6.6673446978       -9.5900438254  MEMB      165             0.0000000000
     20414       165  DOPC      H7R           -36.6345779547       -6.4626374445       -9.2974293346  MEMB      165             0.0000000000
     20415       165  DOPC      H7S           -35.3334678466       -5.8206187652      -10.2648336286  MEMB      165             0.0000000000
     20416       165  DOPC      C28           -34.7211550399       -6.6315969652       -8.2942652245  MEMB      165             0.0000000000
     20417       165  DOPC      H8R           -33.6613331606       -6.5024863692       -8.6015572542  MEMB      165             0.0000000000
     20418       165  DOPC      H8S           -34.7229852497       -7.6849169863       -7.9409463273  MEMB      165             0.0000000000
     20419       165  DOPC      C29           -35.0274053245       -5.6215493430       -7.1646408070  MEMB      165             0.0000000000
     20420       165  DOPC      H9R           -34.7923132659       -4.5581707103       -7.3194236259  MEMB      165             0.0000000000
     20421       165  DOPC      C210          -35.6969539166       -5.9633449669       -6.0942483327  MEMB      165             0.0000000000
     20422       165  DOPC      H10R          -35.8681717525       -5.2457386785       -5.2783286566  MEMB      165             0.0000000000
     20423       165  DOPC      C211          -36.2509546499       -7.3389449113       -5.7827599384  MEMB      165             0.0000000000
     20424       165  DOPC      H11R          -35.4363786649       -8.0836206104       -5.6553040315  MEMB      165             0.0000000000
     20425       165  DOPC      H11S          -36.9491299770       -7.7252245857       -6.5558445267  MEMB      165             0.0000000000
     20426       165  DOPC      C212          -36.9400221098       -7.5735799228       -4.3587924062  MEMB      165             0.0000000000
     20427       165  DOPC      H12R          -36.0778620702       -7.5216093855       -3.6600069561  MEMB      165             0.0000000000
     20428       165  DOPC      H12S          -37.2181694190       -8.6370820822       -4.1977983227  MEMB      165             0.0000000000
     20429       165  DOPC      C213          -38.0823849025       -6.7063211112       -3.7656510118  MEMB      165             0.0000000000
     20430       165  DOPC      H13R          -38.4186324998       -5.9577982792       -4.5146309927  MEMB      165             0.0000000000
     20431       165  DOPC      H13S          -37.6319398958       -6.2180392165       -2.8751448318  MEMB      165             0.0000000000
     20432       165  DOPC      C214          -39.4131265254       -7.3983225488       -3.2512782626  MEMB      165             0.0000000000
     20433       165  DOPC      H14R          -39.8641773622       -7.9302820069       -4.1160860786  MEMB      165             0.0000000000
     20434       165  DOPC      H14S          -40.1202450396       -6.6076294203       -2.9209629658  MEMB      165             0.0000000000
     20435       165  DOPC      C215          -39.3859017854       -8.4083721361       -2.0886048471  MEMB      165             0.0000000000
     20436       165  DOPC      H15R          -38.9397124540       -9.2975277814       -2.5832143678  MEMB      165             0.0000000000
     20437       165  DOPC      H15S          -40.4535015920       -8.6640134371       -1.9177283942  MEMB      165             0.0000000000
     20438       165  DOPC      C216          -38.5716012634       -8.0422611712       -0.8766303622  MEMB      165             0.0000000000
     20439       165  DOPC      H16R          -37.5051851327       -8.0762823171       -1.1863399129  MEMB      165             0.0000000000
     20440       165  DOPC      H16S          -38.8290838558       -8.8122341525       -0.1182342673  MEMB      165             0.0000000000
     20441       165  DOPC      C217          -38.8310103658       -6.6869622223       -0.1376264818  MEMB      165             0.0000000000
     20442       165  DOPC      H17R          -39.8860904611       -6.5215862020        0.1686060366  MEMB      165             0.0000000000
     20443       165  DOPC      H17S          -38.6126312824       -5.8727362822       -0.8612754379  MEMB      165             0.0000000000
     20444       165  DOPC      C218          -37.7190859052       -6.5521871163        0.9650458060  MEMB      165             0.0000000000
     20445       165  DOPC      H18R          -37.9581519719       -5.6653149900        1.5900468193  MEMB      165             0.0000000000
     20446       165  DOPC      H18S          -36.6533953095       -6.5971772717        0.6542396614  MEMB      165             0.0000000000
     20447       165  DOPC      H18T          -37.7594631332       -7.4437422848        1.6267247491  MEMB      165             0.0000000000
     20448       165  DOPC      C33           -35.5052586130      -11.6748220372      -14.3605056140  MEMB      165             0.0000000000
     20449       165  DOPC      H3X           -35.5636052251      -12.7842597067      -14.3524979110  MEMB      165             0.0000000000
     20450       165  DOPC      H3Y           -36.4095378043      -11.1811286767      -13.9447329794  MEMB      165             0.0000000000
     20451       165  DOPC      C34           -34.2904859827      -11.4053606759      -13.5432276291  MEMB      165             0.0000000000
     20452       165  DOPC      H4X           -34.3131562604      -10.3573292254      -13.1752099728  MEMB      165             0.0000000000
     20453       165  DOPC      H4Y           -33.3755350936      -11.5044497429      -14.1656158215  MEMB      165             0.0000000000
     20454       165  DOPC      C35           -34.1499946910      -12.4364795118      -12.4427662523  MEMB      165             0.0000000000
     20455       165  DOPC      H5X           -33.0608732547      -12.5295421657      -12.2440840785  MEMB      165             0.0000000000
     20456       165  DOPC      H5Y           -34.4249918161      -13.4487431894      -12.8088533457  MEMB      165             0.0000000000
     20457       165  DOPC      C36           -34.8682196295      -12.0551185078      -11.0896239395  MEMB      165             0.0000000000
     20458       165  DOPC      H6X           -34.3427432864      -12.2933597427      -10.1401839115  MEMB      165             0.0000000000
     20459       165  DOPC      H6Y           -34.9876569245      -10.9510170276      -11.1214945285  MEMB      165             0.0000000000
     20460       165  DOPC      C37           -36.2926340272      -12.7350264705      -11.0551600674  MEMB      165             0.0000000000
     20461       165  DOPC      H7X           -36.8067034037      -12.4465387597      -11.9968758448  MEMB      165             0.0000000000
     20462       165  DOPC      H7Y           -36.2025879995      -13.8359830606      -10.9363867674  MEMB      165             0.0000000000
     20463       165  DOPC      C38           -37.1075349785      -12.2291677788       -9.8145480379  MEMB      165             0.0000000000
     20464       165  DOPC      H8X           -37.2532103411      -11.1344313677       -9.9355912812  MEMB      165             0.0000000000
     20465       165  DOPC      H8Y           -36.4460342128      -12.4422564873       -8.9477540106  MEMB      165             0.0000000000
     20466       165  DOPC      C39           -38.3572574168      -12.9332440207       -9.6843205412  MEMB      165             0.0000000000
     20467       165  DOPC      H9X           -39.1755884577      -12.4215706340      -10.2120752587  MEMB      165             0.0000000000
     20468       165  DOPC      C310          -38.6342417197      -14.0218360442       -8.9605708757  MEMB      165             0.0000000000
     20469       165  DOPC      H10X          -39.6884009595      -14.2977425985       -8.8101584282  MEMB      165             0.0000000000
     20470       165  DOPC      C311          -37.6255552402      -14.7068711874       -8.0867789714  MEMB      165             0.0000000000
     20471       165  DOPC      H11X          -36.6017150260      -14.5943304714       -8.5032005621  MEMB      165             0.0000000000
     20472       165  DOPC      H11Y          -37.7361163859      -15.8101423667       -8.1567112790  MEMB      165             0.0000000000
     20473       165  DOPC      C312          -37.6725619542      -14.2927199828       -6.6275894868  MEMB      165             0.0000000000
     20474       165  DOPC      H12X          -36.9794357806      -14.9807851541       -6.0980013530  MEMB      165             0.0000000000
     20475       165  DOPC      H12Y          -38.6554956398      -14.5485462090       -6.1773508750  MEMB      165             0.0000000000
     20476       165  DOPC      C313          -37.2981839049      -12.8319167185       -6.3476576427  MEMB      165             0.0000000000
     20477       165  DOPC      H13X          -36.2670150764      -12.6294306959       -6.7082277642  MEMB      165             0.0000000000
     20478       165  DOPC      H13Y          -37.9907881627      -12.1483736928       -6.8837444953  MEMB      165             0.0000000000
     20479       165  DOPC      C314          -37.2401961383      -12.5895358093       -4.7625187228  MEMB      165             0.0000000000
     20480       165  DOPC      H14X          -38.2657317570      -12.5580437185       -4.3363657856  MEMB      165             0.0000000000
     20481       165  DOPC      H14Y          -36.6056908802      -13.3933191118       -4.3316402554  MEMB      165             0.0000000000
     20482       165  DOPC      C315          -36.7341685990      -11.2701250774       -4.3395900565  MEMB      165             0.0000000000
     20483       165  DOPC      H15X          -37.5386954904      -10.6827321099       -3.8476271574  MEMB      165             0.0000000000
     20484       165  DOPC      H15Y          -36.2903482700      -10.6369934635       -5.1373925001  MEMB      165             0.0000000000
     20485       165  DOPC      C316          -35.6742817701      -11.4228827905       -3.1405777094  MEMB      165             0.0000000000
     20486       165  DOPC      H16X          -36.1080578988      -12.1052776497       -2.3786735760  MEMB      165             0.0000000000
     20487       165  DOPC      H16Y          -34.7848684944      -11.8752349288       -3.6290882172  MEMB      165             0.0000000000
     20488       165  DOPC      C317          -35.2150487376      -10.1375555094       -2.4510904521  MEMB      165             0.0000000000
     20489       165  DOPC      H17X          -34.7144124827       -9.4730875596       -3.1874107675  MEMB      165             0.0000000000
     20490       165  DOPC      H17Y          -36.1003796546       -9.6501263245       -1.9896550261  MEMB      165             0.0000000000
     20491       165  DOPC      C318          -34.0866570274      -10.4602420546       -1.4479306944  MEMB      165             0.0000000000
     20492       165  DOPC      H18X          -34.4294287648      -11.2578376869       -0.7546262898  MEMB      165             0.0000000000
     20493       165  DOPC      H18Y          -33.1442416353      -10.7928406337       -1.9332685945  MEMB      165             0.0000000000
     20494       165  DOPC      H18Z          -33.9836579701       -9.5333409316       -0.8441366948  MEMB      165             0.0000000000
     20495       166  DOPC      N              20.4771314374      -25.0108405383      -19.7594522775  MEMB      166             0.0000000000
     20496       166  DOPC      C12            21.6553059465      -25.2774087660      -18.8121706707  MEMB      166             0.0000000000
     20497       166  DOPC      H12A           21.7771512194      -24.4531396291      -18.1250505589  MEMB      166             0.0000000000
     20498       166  DOPC      H12B           22.5252683231      -25.5024793585      -19.4112605350  MEMB      166             0.0000000000
     20499       166  DOPC      C13            20.4989386216      -23.6315796543      -20.3770892018  MEMB      166             0.0000000000
     20500       166  DOPC      H13A           21.4261904349      -23.4242329337      -20.8905200960  MEMB      166             0.0000000000
     20501       166  DOPC      H13B           19.7607287173      -23.6142309880      -21.1652167510  MEMB      166             0.0000000000
     20502       166  DOPC      H13C           20.2853505259      -22.8809347360      -19.6305557062  MEMB      166             0.0000000000
     20503       166  DOPC      C14            19.1972004540      -25.0488966286      -19.0318423272  MEMB      166             0.0000000000
     20504       166  DOPC      H14A           19.2338913664      -25.9754165780      -18.4781144558  MEMB      166             0.0000000000
     20505       166  DOPC      H14B           19.1817205887      -24.3196131004      -18.2354091231  MEMB      166             0.0000000000
     20506       166  DOPC      H14C           18.3425309326      -24.9382184875      -19.6827574700  MEMB      166             0.0000000000
     20507       166  DOPC      C15            20.6011581137      -26.0247421979      -20.9006275619  MEMB      166             0.0000000000
     20508       166  DOPC      H15A           21.4355213206      -25.7713220937      -21.5378216387  MEMB      166             0.0000000000
     20509       166  DOPC      H15B           19.7298564484      -25.9565007771      -21.5351166843  MEMB      166             0.0000000000
     20510       166  DOPC      H15C           20.8113047747      -26.9724911231      -20.4273302579  MEMB      166             0.0000000000
     20511       166  DOPC      C11            21.5866144294      -26.5097709204      -17.8600435115  MEMB      166             0.0000000000
     20512       166  DOPC      H11A           22.4311396117      -26.3356610181      -17.1594838317  MEMB      166             0.0000000000
     20513       166  DOPC      H11B           20.6610252289      -26.2934811091      -17.2848703818  MEMB      166             0.0000000000
     20514       166  DOPC      P              22.8905047992      -28.6689090331      -18.5151084610  MEMB      166             0.0000000000
     20515       166  DOPC      O13            24.0762445265      -27.8453546691      -18.8830064124  MEMB      166             0.0000000000
     20516       166  DOPC      O14            22.5102079063      -29.8449719137      -19.3424186940  MEMB      166             0.0000000000
     20517       166  DOPC      O12            21.5716292660      -27.7788263297      -18.5093185042  MEMB      166             0.0000000000
     20518       166  DOPC      O11            23.0161495050      -29.2222749492      -17.0089223800  MEMB      166             0.0000000000
     20519       166  DOPC      C1             22.0385445071      -30.1521315571      -16.5508150305  MEMB      166             0.0000000000
     20520       166  DOPC      HA             22.3089746008      -31.1770784585      -16.8834896229  MEMB      166             0.0000000000
     20521       166  DOPC      HB             20.9682583011      -29.9616436962      -16.7799935565  MEMB      166             0.0000000000
     20522       166  DOPC      C2             22.2163245346      -30.2034074161      -14.9377887271  MEMB      166             0.0000000000
     20523       166  DOPC      HS             21.5569546412      -31.0479392583      -14.6439888000  MEMB      166             0.0000000000
     20524       166  DOPC      O21            21.8795043339      -28.9389143725      -14.3709683412  MEMB      166             0.0000000000
     20525       166  DOPC      C21            20.6127668551      -28.5934642496      -14.5227383145  MEMB      166             0.0000000000
     20526       166  DOPC      O22            19.7019201908      -29.2080530994      -15.0629436873  MEMB      166             0.0000000000
     20527       166  DOPC      C22            20.3178213316      -27.4217168038      -13.5168622033  MEMB      166             0.0000000000
     20528       166  DOPC      H2R            20.1893320824      -26.4281335934      -13.9970745960  MEMB      166             0.0000000000
     20529       166  DOPC      H2S            21.1471644442      -27.3764766713      -12.7789836698  MEMB      166             0.0000000000
     20530       166  DOPC      C3             23.6673008237      -30.6768572243      -14.4977215414  MEMB      166             0.0000000000
     20531       166  DOPC      HX             24.4021848975      -30.0411359785      -15.0363539867  MEMB      166             0.0000000000
     20532       166  DOPC      HY             23.8607189956      -31.7425469529      -14.7451402306  MEMB      166             0.0000000000
     20533       166  DOPC      O31            23.8065098126      -30.3726236803      -13.1439215164  MEMB      166             0.0000000000
     20534       166  DOPC      C31            24.8924429357      -30.8289609179      -12.5563303244  MEMB      166             0.0000000000
     20535       166  DOPC      O32            25.8155173721      -31.3487795465      -13.1662437567  MEMB      166             0.0000000000
     20536       166  DOPC      C32            24.9453327790      -30.3173134422      -11.1454240537  MEMB      166             0.0000000000
     20537       166  DOPC      H2X            25.4078780403      -29.3072554183      -11.1579104414  MEMB      166             0.0000000000
     20538       166  DOPC      H2Y            23.9271448866      -30.1142771758      -10.7499613088  MEMB      166             0.0000000000
     20539       166  DOPC      C23            18.9523811123      -27.6246057275      -12.6973614544  MEMB      166             0.0000000000
     20540       166  DOPC      H3R            18.1764536598      -28.1063177461      -13.3299840058  MEMB      166             0.0000000000
     20541       166  DOPC      H3S            18.4861695006      -26.6275567140      -12.5461623333  MEMB      166             0.0000000000
     20542       166  DOPC      C24            19.0188972450      -28.1953665694      -11.2895449376  MEMB      166             0.0000000000
     20543       166  DOPC      H4R            19.5990651157      -29.1418757196      -11.3325192685  MEMB      166             0.0000000000
     20544       166  DOPC      H4S            17.9658843127      -28.2479885830      -10.9392370116  MEMB      166             0.0000000000
     20545       166  DOPC      C25            19.7027212327      -27.3566428609      -10.1727356550  MEMB      166             0.0000000000
     20546       166  DOPC      H5R            19.2777867806      -26.3306297996      -10.2051247882  MEMB      166             0.0000000000
     20547       166  DOPC      H5S            20.7983718913      -27.2557384666      -10.3266484443  MEMB      166             0.0000000000
     20548       166  DOPC      C26            19.4566716790      -28.0085335989       -8.8101402246  MEMB      166             0.0000000000
     20549       166  DOPC      H6R            18.4010604383      -28.0093144912       -8.4637224992  MEMB      166             0.0000000000
     20550       166  DOPC      H6S            19.9664891272      -27.4959822826       -7.9665185688  MEMB      166             0.0000000000
     20551       166  DOPC      C27            19.9611367884      -29.4780715642       -8.6789789916  MEMB      166             0.0000000000
     20552       166  DOPC      H7R            19.7905698285      -30.0338487485       -9.6257306487  MEMB      166             0.0000000000
     20553       166  DOPC      H7S            19.1940030323      -30.0021047084       -8.0697040348  MEMB      166             0.0000000000
     20554       166  DOPC      C28            21.3940315445      -29.5627360900       -8.0911183233  MEMB      166             0.0000000000
     20555       166  DOPC      H8R            22.0681934606      -28.8354487942       -8.5919971079  MEMB      166             0.0000000000
     20556       166  DOPC      H8S            21.9083323434      -30.5325773887       -8.2620680032  MEMB      166             0.0000000000
     20557       166  DOPC      C29            21.3702669133      -29.2248801841       -6.6164480908  MEMB      166             0.0000000000
     20558       166  DOPC      H9R            21.1099999359      -28.1604276625       -6.5205209338  MEMB      166             0.0000000000
     20559       166  DOPC      C210           21.4955389799      -29.9798715795       -5.5038720237  MEMB      166             0.0000000000
     20560       166  DOPC      H10R           21.3128701148      -29.4238567533       -4.5724861711  MEMB      166             0.0000000000
     20561       166  DOPC      C211           21.7212606410      -31.4738610420       -5.5585196273  MEMB      166             0.0000000000
     20562       166  DOPC      H11R           21.5841772267      -31.8052690525       -6.6100415710  MEMB      166             0.0000000000
     20563       166  DOPC      H11S           20.8444869229      -31.8186287208       -4.9696867046  MEMB      166             0.0000000000
     20564       166  DOPC      C212           23.0763299967      -31.8955385084       -4.9153085386  MEMB      166             0.0000000000
     20565       166  DOPC      H12R           23.8140912136      -31.8117168495       -5.7417492046  MEMB      166             0.0000000000
     20566       166  DOPC      H12S           22.9476491117      -32.9505812318       -4.5918179155  MEMB      166             0.0000000000
     20567       166  DOPC      C213           23.6433462262      -30.9854326169       -3.7863105912  MEMB      166             0.0000000000
     20568       166  DOPC      H13R           22.8855788270      -30.8839709922       -2.9801990081  MEMB      166             0.0000000000
     20569       166  DOPC      H13S           23.9171926621      -29.9845793317       -4.1833272062  MEMB      166             0.0000000000
     20570       166  DOPC      C214           25.0423849174      -31.4780847460       -3.2294497559  MEMB      166             0.0000000000
     20571       166  DOPC      H14R           25.6399287074      -31.2855013147       -4.1460594795  MEMB      166             0.0000000000
     20572       166  DOPC      H14S           24.8966771766      -32.5486624854       -2.9706952568  MEMB      166             0.0000000000
     20573       166  DOPC      C215           25.5585916976      -30.7434112108       -1.9841613395  MEMB      166             0.0000000000
     20574       166  DOPC      H15R           26.3722199836      -31.3609356393       -1.5471346232  MEMB      166             0.0000000000
     20575       166  DOPC      H15S           24.8413600387      -30.6549470551       -1.1403180632  MEMB      166             0.0000000000
     20576       166  DOPC      C216           26.1233266674      -29.3413279098       -2.2583614636  MEMB      166             0.0000000000
     20577       166  DOPC      H16R           25.2958995724      -28.7160571792       -2.6567609927  MEMB      166             0.0000000000
     20578       166  DOPC      H16S           26.8967448787      -29.5020244532       -3.0395931324  MEMB      166             0.0000000000
     20579       166  DOPC      C217           26.6773470496      -28.7833000483       -0.9992054893  MEMB      166             0.0000000000
     20580       166  DOPC      H17R           27.6288563371      -29.3375726406       -0.8517881485  MEMB      166             0.0000000000
     20581       166  DOPC      H17S           26.1093391460      -29.1359759028       -0.1119024628  MEMB      166             0.0000000000
     20582       166  DOPC      C218           26.7310971287      -27.2245732676       -0.9132233607  MEMB      166             0.0000000000
     20583       166  DOPC      H18R           26.7819495895      -26.9858682481        0.1706381846  MEMB      166             0.0000000000
     20584       166  DOPC      H18S           25.7460921053      -26.8037790338       -1.2082114467  MEMB      166             0.0000000000
     20585       166  DOPC      H18T           27.5342300055      -26.8473709227       -1.5818157554  MEMB      166             0.0000000000
     20586       166  DOPC      C33            25.6886895872      -31.3668788826      -10.2786167749  MEMB      166             0.0000000000
     20587       166  DOPC      H3X            26.6995737166      -31.4841391429      -10.7243565913  MEMB      166             0.0000000000
     20588       166  DOPC      H3Y            25.1237615729      -32.3144456572      -10.4101260027  MEMB      166             0.0000000000
     20589       166  DOPC      C34            25.5808442364      -31.0697582947       -8.7929182190  MEMB      166             0.0000000000
     20590       166  DOPC      H4X            26.0555730876      -31.9114701280       -8.2447622081  MEMB      166             0.0000000000
     20591       166  DOPC      H4Y            24.5342824548      -31.1015106912       -8.4214064315  MEMB      166             0.0000000000
     20592       166  DOPC      C35            26.1774943075      -29.7770647037       -8.4049598754  MEMB      166             0.0000000000
     20593       166  DOPC      H5X            25.8697304397      -28.9732413283       -9.1074338553  MEMB      166             0.0000000000
     20594       166  DOPC      H5Y            27.2808361539      -29.9072368413       -8.4014023113  MEMB      166             0.0000000000
     20595       166  DOPC      C36            25.8096540461      -29.2898254762       -6.8998433424  MEMB      166             0.0000000000
     20596       166  DOPC      H6X            24.7254808166      -29.4096651432       -6.6888266335  MEMB      166             0.0000000000
     20597       166  DOPC      H6Y            26.2601493511      -30.0163001264       -6.1901888405  MEMB      166             0.0000000000
     20598       166  DOPC      C37            26.1304757544      -27.8354279889       -6.5183423878  MEMB      166             0.0000000000
     20599       166  DOPC      H7X            25.8808719527      -27.7025586143       -5.4439286586  MEMB      166             0.0000000000
     20600       166  DOPC      H7Y            27.2168213225      -27.6594021776       -6.6706215315  MEMB      166             0.0000000000
     20601       166  DOPC      C38            25.3495266095      -26.8418055274       -7.3910205446  MEMB      166             0.0000000000
     20602       166  DOPC      H8X            25.5299361399      -27.1462190609       -8.4441619569  MEMB      166             0.0000000000
     20603       166  DOPC      H8Y            25.8128146642      -25.8474703005       -7.2150013167  MEMB      166             0.0000000000
     20604       166  DOPC      C39            23.8619645511      -26.8449467259       -7.2126909258  MEMB      166             0.0000000000
     20605       166  DOPC      H9X            23.1942237456      -27.1410365214       -8.0351580283  MEMB      166             0.0000000000
     20606       166  DOPC      C310           23.2403551227      -26.1441402993       -6.2884179212  MEMB      166             0.0000000000
     20607       166  DOPC      H10X           22.1602924879      -26.3235836602       -6.1822820521  MEMB      166             0.0000000000
     20608       166  DOPC      C311           23.9093901487      -25.2374259123       -5.2289231825  MEMB      166             0.0000000000
     20609       166  DOPC      H11X           23.3719895050      -24.2657904414       -5.1908938724  MEMB      166             0.0000000000
     20610       166  DOPC      H11Y           24.9101030755      -24.9284486897       -5.5996356796  MEMB      166             0.0000000000
     20611       166  DOPC      C312           24.0089961913      -25.8206484043       -3.7919722238  MEMB      166             0.0000000000
     20612       166  DOPC      H12X           24.3944494834      -25.0457350486       -3.0953692387  MEMB      166             0.0000000000
     20613       166  DOPC      H12Y           24.8170015275      -26.5829244601       -3.7723879133  MEMB      166             0.0000000000
     20614       166  DOPC      C313           22.7618708083      -26.4493578766       -3.2432589573  MEMB      166             0.0000000000
     20615       166  DOPC      H13X           21.9363046015      -25.7106684543       -3.3275157303  MEMB      166             0.0000000000
     20616       166  DOPC      H13Y           22.6499596097      -27.3604432307       -3.8691344311  MEMB      166             0.0000000000
     20617       166  DOPC      C314           22.8026800151      -26.8351796397       -1.7851159630  MEMB      166             0.0000000000
     20618       166  DOPC      H14X           22.0032678897      -27.5929266248       -1.6399239581  MEMB      166             0.0000000000
     20619       166  DOPC      H14Y           23.6924562913      -27.3774527213       -1.3996804618  MEMB      166             0.0000000000
     20620       166  DOPC      C315           22.6527344739      -25.6488125262       -0.7810066676  MEMB      166             0.0000000000
     20621       166  DOPC      H15X           21.8108372996      -25.0255976191       -1.1513223557  MEMB      166             0.0000000000
     20622       166  DOPC      H15Y           23.5286865050      -24.9655883790       -0.7963034321  MEMB      166             0.0000000000
     20623       166  DOPC      C316           22.5737021601      -26.1177666938        0.7079454689  MEMB      166             0.0000000000
     20624       166  DOPC      H16X           21.6832836796      -26.7168914339        0.9952171492  MEMB      166             0.0000000000
     20625       166  DOPC      H16Y           23.4030203339      -26.8478092573        0.8245216035  MEMB      166             0.0000000000
     20626       166  DOPC      C317           22.7120612250      -24.9073150233        1.6736496701  MEMB      166             0.0000000000
     20627       166  DOPC      H17X           22.5731067543      -25.2376497958        2.7252640276  MEMB      166             0.0000000000
     20628       166  DOPC      H17Y           23.7761774626      -24.5961765614        1.7455563550  MEMB      166             0.0000000000
     20629       166  DOPC      C318           22.0256221547      -23.6548104776        1.2264715612  MEMB      166             0.0000000000
     20630       166  DOPC      H18X           22.1087793897      -22.8305712719        1.9667670583  MEMB      166             0.0000000000
     20631       166  DOPC      H18Y           22.3917030598      -23.3571590583        0.2206336485  MEMB      166             0.0000000000
     20632       166  DOPC      H18Z           20.9390469863      -23.8804407339        1.1738766902  MEMB      166             0.0000000000
     20633       167  DOPE      N             -11.2389952861       33.3975424124      -20.1932424027  MEMB      167             0.0000000000
     20634       167  DOPE      HN1           -10.9895790516       33.3089316326      -21.1989957155  MEMB      167             0.0000000000
     20635       167  DOPE      HN2           -11.6885992749       32.5086511851      -19.8943633979  MEMB      167             0.0000000000
     20636       167  DOPE      HN3           -11.8254973337       34.2546893132      -20.1392575149  MEMB      167             0.0000000000
     20637       167  DOPE      C12            -9.9930409999       33.7935621331      -19.3454695995  MEMB      167             0.0000000000
     20638       167  DOPE      H12A          -10.4350273793       33.7366547673      -18.3277610530  MEMB      167             0.0000000000
     20639       167  DOPE      H12B           -9.7022343367       34.8287262560      -19.6250899689  MEMB      167             0.0000000000
     20640       167  DOPE      C11            -8.7634915504       32.8295112423      -19.5346970816  MEMB      167             0.0000000000
     20641       167  DOPE      H11A           -8.4514070505       32.9362448196      -20.5956081219  MEMB      167             0.0000000000
     20642       167  DOPE      H11B           -9.1150635716       31.7809756440      -19.4284370504  MEMB      167             0.0000000000
     20643       167  DOPE      P              -6.6794662301       34.0992445963      -18.5991815812  MEMB      167             0.0000000000
     20644       167  DOPE      O13            -6.9865969901       35.3493360973      -17.9027893659  MEMB      167             0.0000000000
     20645       167  DOPE      O14            -6.2530296236       34.1910931849      -20.0491964140  MEMB      167             0.0000000000
     20646       167  DOPE      O11            -5.5325831125       33.2724850729      -17.8925166702  MEMB      167             0.0000000000
     20647       167  DOPE      O12            -7.8401543856       33.0176532713      -18.4829068843  MEMB      167             0.0000000000
     20648       167  DOPE      C1             -5.6564388901       31.9337450065      -17.5139891122  MEMB      167             0.0000000000
     20649       167  DOPE      HA             -4.6370427298       31.4981657827      -17.4403467256  MEMB      167             0.0000000000
     20650       167  DOPE      HB             -6.0930979409       31.2674799099      -18.2884182903  MEMB      167             0.0000000000
     20651       167  DOPE      C2             -6.3813605001       31.7988751997      -16.0929796164  MEMB      167             0.0000000000
     20652       167  DOPE      HS             -7.4592058812       31.9051613312      -16.3405145898  MEMB      167             0.0000000000
     20653       167  DOPE      O21            -5.8291064088       32.8644471173      -15.2434585867  MEMB      167             0.0000000000
     20654       167  DOPE      C21            -6.6767794639       33.6271236009      -14.6788762735  MEMB      167             0.0000000000
     20655       167  DOPE      O22            -7.8577044642       33.3582567351      -14.5538672621  MEMB      167             0.0000000000
     20656       167  DOPE      C22            -6.0151355164       34.8510291872      -14.1690446990  MEMB      167             0.0000000000
     20657       167  DOPE      H2R            -5.7101960628       35.4405370825      -15.0600067635  MEMB      167             0.0000000000
     20658       167  DOPE      H2S            -5.0735430809       34.5255144773      -13.6773490748  MEMB      167             0.0000000000
     20659       167  DOPE      C3             -6.1464201467       30.3471999598      -15.4871477583  MEMB      167             0.0000000000
     20660       167  DOPE      HX             -5.0879287699       30.1603720388      -15.2060560495  MEMB      167             0.0000000000
     20661       167  DOPE      HY             -6.4854137658       29.7479674439      -16.3591137045  MEMB      167             0.0000000000
     20662       167  DOPE      O31            -7.0618315883       30.1021447896      -14.4078947841  MEMB      167             0.0000000000
     20663       167  DOPE      C31            -6.6399385887       30.4504782201      -13.1812356556  MEMB      167             0.0000000000
     20664       167  DOPE      O32            -5.5528695732       30.8560273519      -12.8391574727  MEMB      167             0.0000000000
     20665       167  DOPE      C32            -7.7144659503       30.0968200042      -12.1273530837  MEMB      167             0.0000000000
     20666       167  DOPE      H2X            -8.6726386821       30.4068895043      -12.5964834645  MEMB      167             0.0000000000
     20667       167  DOPE      H2Y            -7.7152058754       29.0033558437      -11.9307418169  MEMB      167             0.0000000000
     20668       167  DOPE      C23            -6.8334014751       35.6876279778      -13.2032580700  MEMB      167             0.0000000000
     20669       167  DOPE      H3R            -6.9006011917       35.1602107456      -12.2277396799  MEMB      167             0.0000000000
     20670       167  DOPE      H3S            -7.8189834916       35.8667356223      -13.6837470995  MEMB      167             0.0000000000
     20671       167  DOPE      C24            -6.2100634785       37.1070510668      -13.2007541624  MEMB      167             0.0000000000
     20672       167  DOPE      H4R            -6.9429449196       37.6917852446      -12.6046905405  MEMB      167             0.0000000000
     20673       167  DOPE      H4S            -6.2649943367       37.5547777441      -14.2160593327  MEMB      167             0.0000000000
     20674       167  DOPE      C25            -4.7650369709       37.2570463005      -12.6273619386  MEMB      167             0.0000000000
     20675       167  DOPE      H5R            -4.5972592716       38.3492237477      -12.5119490780  MEMB      167             0.0000000000
     20676       167  DOPE      H5S            -4.1047063197       36.8373614968      -13.4161263817  MEMB      167             0.0000000000
     20677       167  DOPE      C26            -4.3451751434       36.5608464088      -11.3450930603  MEMB      167             0.0000000000
     20678       167  DOPE      H6R            -3.2956784298       36.8370402883      -11.1071976674  MEMB      167             0.0000000000
     20679       167  DOPE      H6S            -4.4672206840       35.4957435706      -11.6366095749  MEMB      167             0.0000000000
     20680       167  DOPE      C27            -5.2821976562       36.7519716666      -10.1878054029  MEMB      167             0.0000000000
     20681       167  DOPE      H7R            -6.3018125517       36.8511963458      -10.6177602350  MEMB      167             0.0000000000
     20682       167  DOPE      H7S            -5.0471021716       37.7286634763       -9.7133328681  MEMB      167             0.0000000000
     20683       167  DOPE      C28            -5.3937464481       35.6540252272       -9.1189803132  MEMB      167             0.0000000000
     20684       167  DOPE      H8R            -5.9522369493       34.7660818460       -9.4849942658  MEMB      167             0.0000000000
     20685       167  DOPE      H8S            -6.1597937624       36.0063532630       -8.3955463733  MEMB      167             0.0000000000
     20686       167  DOPE      C29            -4.1012960870       35.3262793961       -8.3928394432  MEMB      167             0.0000000000
     20687       167  DOPE      H9R            -3.8306158238       36.1081662507       -7.6680052173  MEMB      167             0.0000000000
     20688       167  DOPE      C210           -3.3018994844       34.2756700035       -8.5948727085  MEMB      167             0.0000000000
     20689       167  DOPE      H10R           -2.3116186782       34.3193992013       -8.1179742759  MEMB      167             0.0000000000
     20690       167  DOPE      C211           -3.4702967402       33.1561360897       -9.5972251724  MEMB      167             0.0000000000
     20691       167  DOPE      H11R           -2.4894977397       32.9211722817      -10.0632148655  MEMB      167             0.0000000000
     20692       167  DOPE      H11S           -4.1419938436       33.5250980740      -10.4015953002  MEMB      167             0.0000000000
     20693       167  DOPE      C212           -4.1358309025       31.7881959541       -9.3472596543  MEMB      167             0.0000000000
     20694       167  DOPE      H12R           -4.2987877256       31.2095082859      -10.2815433944  MEMB      167             0.0000000000
     20695       167  DOPE      H12S           -5.1368817956       31.8361637251       -8.8677625942  MEMB      167             0.0000000000
     20696       167  DOPE      C213           -3.2720475129       30.8961190519       -8.4346214429  MEMB      167             0.0000000000
     20697       167  DOPE      H13R           -2.1747753092       30.8972198688       -8.6087297378  MEMB      167             0.0000000000
     20698       167  DOPE      H13S           -3.7137366565       29.8920528129       -8.6109241220  MEMB      167             0.0000000000
     20699       167  DOPE      C214           -3.3803343829       31.0827816539       -6.9296217920  MEMB      167             0.0000000000
     20700       167  DOPE      H14R           -2.7905118936       31.9660261322       -6.6035703971  MEMB      167             0.0000000000
     20701       167  DOPE      H14S           -3.0272828686       30.2534837120       -6.2800527039  MEMB      167             0.0000000000
     20702       167  DOPE      C215           -4.8615618260       31.3104242767       -6.2717497387  MEMB      167             0.0000000000
     20703       167  DOPE      H15R           -5.4249770068       32.0380857321       -6.8941590062  MEMB      167             0.0000000000
     20704       167  DOPE      H15S           -4.6803096959       31.7887456561       -5.2855054860  MEMB      167             0.0000000000
     20705       167  DOPE      C216           -5.5546370150       30.0088245442       -5.8953571461  MEMB      167             0.0000000000
     20706       167  DOPE      H16R           -5.6536375143       29.2752388821       -6.7238329576  MEMB      167             0.0000000000
     20707       167  DOPE      H16S           -6.5908383278       30.2968803640       -5.6167318343  MEMB      167             0.0000000000
     20708       167  DOPE      C217           -4.8933650038       29.2102273057       -4.7337609453  MEMB      167             0.0000000000
     20709       167  DOPE      H17R           -3.9277948624       28.7317728615       -5.0040867824  MEMB      167             0.0000000000
     20710       167  DOPE      H17S           -5.5434240719       28.3143816222       -4.6378185346  MEMB      167             0.0000000000
     20711       167  DOPE      C218           -4.7577587161       29.9677748506       -3.4575995439  MEMB      167             0.0000000000
     20712       167  DOPE      H18R           -4.5259986187       29.2902256562       -2.6081670027  MEMB      167             0.0000000000
     20713       167  DOPE      H18S           -5.6408671900       30.5548074878       -3.1261879606  MEMB      167             0.0000000000
     20714       167  DOPE      H18T           -3.9471309805       30.6972267046       -3.6699756005  MEMB      167             0.0000000000
     20715       167  DOPE      C33            -7.4595614326       30.8840146773      -10.8111989162  MEMB      167             0.0000000000
     20716       167  DOPE      H3X            -7.3619645108       31.9723361225      -11.0120769046  MEMB      167             0.0000000000
     20717       167  DOPE      H3Y            -6.5370499186       30.5767810016      -10.2737038153  MEMB      167             0.0000000000
     20718       167  DOPE      C34            -8.6595134170       30.7875394290       -9.8739507966  MEMB      167             0.0000000000
     20719       167  DOPE      H4X            -9.6021141177       31.2006144270      -10.2925124717  MEMB      167             0.0000000000
     20720       167  DOPE      H4Y            -8.8716148860       29.7164256646       -9.6688921886  MEMB      167             0.0000000000
     20721       167  DOPE      C35            -8.3959047996       31.5065482322       -8.4503758562  MEMB      167             0.0000000000
     20722       167  DOPE      H5X            -7.4342300952       31.1628401236       -8.0129202775  MEMB      167             0.0000000000
     20723       167  DOPE      H5Y            -9.1932518962       31.2365459159       -7.7253530260  MEMB      167             0.0000000000
     20724       167  DOPE      C36            -8.2013957208       32.9991129506       -8.4703654072  MEMB      167             0.0000000000
     20725       167  DOPE      H6X            -7.3705843593       33.3575635207       -9.1150249200  MEMB      167             0.0000000000
     20726       167  DOPE      H6Y            -8.0035538107       33.5388007018       -7.5196195270  MEMB      167             0.0000000000
     20727       167  DOPE      C37            -9.4371959487       33.7766675411       -9.1135564127  MEMB      167             0.0000000000
     20728       167  DOPE      H7X            -9.0823607221       34.8201385287       -9.2534886003  MEMB      167             0.0000000000
     20729       167  DOPE      H7Y            -9.5937280451       33.4575380542      -10.1661600233  MEMB      167             0.0000000000
     20730       167  DOPE      C38           -10.7438999833       33.5615301895       -8.1949211981  MEMB      167             0.0000000000
     20731       167  DOPE      H8X           -10.7256327169       32.5310525880       -7.7800686872  MEMB      167             0.0000000000
     20732       167  DOPE      H8Y           -11.4931647386       33.8227076002       -8.9725521042  MEMB      167             0.0000000000
     20733       167  DOPE      C39           -10.8151144339       34.4150152378       -7.0055738275  MEMB      167             0.0000000000
     20734       167  DOPE      H9X           -10.2933122954       35.3819166692       -7.0587157551  MEMB      167             0.0000000000
     20735       167  DOPE      C310          -11.3286499192       34.1168624216       -5.8036205390  MEMB      167             0.0000000000
     20736       167  DOPE      H10X          -11.3282525288       34.9049739443       -5.0362353798  MEMB      167             0.0000000000
     20737       167  DOPE      C311          -11.9821733874       32.8783910759       -5.4133514127  MEMB      167             0.0000000000
     20738       167  DOPE      H11X          -12.8220525938       33.2107749454       -4.7664780636  MEMB      167             0.0000000000
     20739       167  DOPE      H11Y          -12.5027100363       32.3371899418       -6.2321699617  MEMB      167             0.0000000000
     20740       167  DOPE      C312          -11.2804747486       31.7137668213       -4.5925126970  MEMB      167             0.0000000000
     20741       167  DOPE      H12X          -10.5922554859       31.1032879789       -5.2154026340  MEMB      167             0.0000000000
     20742       167  DOPE      H12Y          -12.0026042958       30.9336035007       -4.2697208062  MEMB      167             0.0000000000
     20743       167  DOPE      C313          -10.4213479154       32.1959148571       -3.3807691430  MEMB      167             0.0000000000
     20744       167  DOPE      H13X           -9.6057161257       32.8889617384       -3.6786809398  MEMB      167             0.0000000000
     20745       167  DOPE      H13Y          -11.0785090153       32.7396102771       -2.6688317508  MEMB      167             0.0000000000
     20746       167  DOPE      C314           -9.8119304378       31.1509675144       -2.5050553429  MEMB      167             0.0000000000
     20747       167  DOPE      H14X           -9.2715341400       30.3940924117       -3.1128655561  MEMB      167             0.0000000000
     20748       167  DOPE      H14Y          -10.6445437760       30.5891189365       -2.0302896442  MEMB      167             0.0000000000
     20749       167  DOPE      C315           -8.9436797491       31.7584577396       -1.4464706848  MEMB      167             0.0000000000
     20750       167  DOPE      H15X           -8.6598582508       30.9801348518       -0.7062151042  MEMB      167             0.0000000000
     20751       167  DOPE      H15Y           -9.3746656091       32.5781069462       -0.8326736734  MEMB      167             0.0000000000
     20752       167  DOPE      C316           -7.4680722452       32.1090909977       -1.8184637063  MEMB      167             0.0000000000
     20753       167  DOPE      H16X           -7.3842988746       32.0387903441       -2.9240666661  MEMB      167             0.0000000000
     20754       167  DOPE      H16Y           -6.8275300696       31.4364290385       -1.2089124870  MEMB      167             0.0000000000
     20755       167  DOPE      C317           -7.0402508691       33.5781476542       -1.4654914472  MEMB      167             0.0000000000
     20756       167  DOPE      H17X           -5.9305515116       33.6315689672       -1.4713593081  MEMB      167             0.0000000000
     20757       167  DOPE      H17Y           -7.3948433593       34.2478314811       -2.2779636631  MEMB      167             0.0000000000
     20758       167  DOPE      C318           -7.3050643633       34.1682878077       -0.0880546163  MEMB      167             0.0000000000
     20759       167  DOPE      H18X           -8.4036998741       34.3266007539       -0.0405345499  MEMB      167             0.0000000000
     20760       167  DOPE      H18Y           -6.9788971602       33.4419702576        0.6867976807  MEMB      167             0.0000000000
     20761       167  DOPE      H18Z           -6.6850915230       35.0728679248        0.0899604079  MEMB      167             0.0000000000
     20762       168  CHL1      C3             33.6398485752       -6.4777092610      -17.3295600000  MEMB      168             0.0000000000
     20763       168  CHL1      H3             34.1870108064       -7.4348521797      -17.1924300000  MEMB      168             0.0000000000
     20764       168  CHL1      O3             33.3592608422       -6.1213486732      -18.6704400000  MEMB      168             0.0000000000
     20765       168  CHL1      H3'            32.7926392140       -6.7810347521      -19.0770600000  MEMB      168             0.0000000000
     20766       168  CHL1      C4             32.3005370128       -6.4679724156      -16.5871400000  MEMB      168             0.0000000000
     20767       168  CHL1      H4A            31.6650474265       -5.5795732446      -16.7901900000  MEMB      168             0.0000000000
     20768       168  CHL1      H4B            31.8032519765       -7.3821570018      -16.9761200000  MEMB      168             0.0000000000
     20769       168  CHL1      C5             32.5146537697       -6.5035775754      -15.0810200000  MEMB      168             0.0000000000
     20770       168  CHL1      C6             31.9823742433       -7.5006150557      -14.2819800000  MEMB      168             0.0000000000
     20771       168  CHL1      H6             31.3692477278       -8.2927155143      -14.7365600000  MEMB      168             0.0000000000
     20772       168  CHL1      C7             32.0102043947       -7.6540356827      -12.8020700000  MEMB      168             0.0000000000
     20773       168  CHL1      H7A            31.0578042151       -7.9526791833      -12.3141700000  MEMB      168             0.0000000000
     20774       168  CHL1      H7B            32.6782557372       -8.5164073580      -12.5915000000  MEMB      168             0.0000000000
     20775       168  CHL1      C8             32.6185876993       -6.4185250929      -12.1766100000  MEMB      168             0.0000000000
     20776       168  CHL1      H8             31.8304285044       -5.6418328935      -12.0772500000  MEMB      168             0.0000000000
     20777       168  CHL1      C14            33.0624458354       -6.7250130632      -10.7562000000  MEMB      168             0.0000000000
     20778       168  CHL1      H14            33.8951573431       -7.4580355348      -10.8160500000  MEMB      168             0.0000000000
     20779       168  CHL1      C15            32.0828569829       -7.4396314387       -9.8435200000  MEMB      168             0.0000000000
     20780       168  CHL1      H15A           31.1432193921       -6.8643350041       -9.7005800000  MEMB      168             0.0000000000
     20781       168  CHL1      H15B           31.9752340275       -8.5086436863      -10.1262400000  MEMB      168             0.0000000000
     20782       168  CHL1      C16            32.7667995160       -7.1993608747       -8.4706500000  MEMB      168             0.0000000000
     20783       168  CHL1      H16A           31.9759507177       -6.8042431230       -7.7977800000  MEMB      168             0.0000000000
     20784       168  CHL1      H16B           33.1236386898       -8.1769873585       -8.0817600000  MEMB      168             0.0000000000
     20785       168  CHL1      C17            34.0090215276       -6.2648305275       -8.6750200000  MEMB      168             0.0000000000
     20786       168  CHL1      H17            34.8676624498       -6.9176480861       -8.9412700000  MEMB      168             0.0000000000
     20787       168  CHL1      C13            33.5970216724       -5.5608904915       -9.9772700000  MEMB      168             0.0000000000
     20788       168  CHL1      C18            32.4399861782       -4.5607291230       -9.6664600000  MEMB      168             0.0000000000
     20789       168  CHL1      H18A           32.8053323637       -3.7500746704       -9.0003700000  MEMB      168             0.0000000000
     20790       168  CHL1      H18B           31.9667910807       -4.0800271199      -10.5492500000  MEMB      168             0.0000000000
     20791       168  CHL1      H18C           31.6286165311       -4.9784637439       -9.0328200000  MEMB      168             0.0000000000
     20792       168  CHL1      C12            34.7366798228       -4.8627885054      -10.6934400000  MEMB      168             0.0000000000
     20793       168  CHL1      H12A           35.0130615643       -3.8805667767      -10.2539400000  MEMB      168             0.0000000000
     20794       168  CHL1      H12B           35.5505351619       -5.6135868992      -10.7843900000  MEMB      168             0.0000000000
     20795       168  CHL1      C11            34.3313973439       -4.5724849215      -12.1521100000  MEMB      168             0.0000000000
     20796       168  CHL1      H11A           33.5870891220       -3.7477372764      -12.1416000000  MEMB      168             0.0000000000
     20797       168  CHL1      H11B           35.2575994355       -4.2632938577      -12.6820800000  MEMB      168             0.0000000000
     20798       168  CHL1      C9             33.7644311848       -5.7771521480      -12.9748400000  MEMB      168             0.0000000000
     20799       168  CHL1      H9             34.5957279735       -6.5025763652      -13.1052800000  MEMB      168             0.0000000000
     20800       168  CHL1      C10            33.4732328202       -5.4832451101      -14.4927100000  MEMB      168             0.0000000000
     20801       168  CHL1      C19            32.8121419809       -4.1088146855      -14.5222100000  MEMB      168             0.0000000000
     20802       168  CHL1      H19A           32.0081544931       -4.0730089285      -13.7563000000  MEMB      168             0.0000000000
     20803       168  CHL1      H19B           33.5834463298       -3.3092949595      -14.5090500000  MEMB      168             0.0000000000
     20804       168  CHL1      H19C           32.4125431201       -3.8546829329      -15.5272200000  MEMB      168             0.0000000000
     20805       168  CHL1      C1             34.8851001957       -5.4265458826      -15.2524100000  MEMB      168             0.0000000000
     20806       168  CHL1      H1A            35.3609717768       -4.5215371962      -14.8178700000  MEMB      168             0.0000000000
     20807       168  CHL1      H1B            35.5341657114       -6.3229745393      -15.1552600000  MEMB      168             0.0000000000
     20808       168  CHL1      C2             34.6496017951       -5.3700882645      -16.7889300000  MEMB      168             0.0000000000
     20809       168  CHL1      H2A            35.6114844699       -5.4775154563      -17.3344100000  MEMB      168             0.0000000000
     20810       168  CHL1      H2B            34.1663207479       -4.4057415041      -17.0550400000  MEMB      168             0.0000000000
     20811       168  CHL1      C20            34.4819618834       -5.5666991149       -7.3567300000  MEMB      168             0.0000000000
     20812       168  CHL1      H20            33.5760494768       -5.0076606305       -7.0387500000  MEMB      168             0.0000000000
     20813       168  CHL1      C21            35.6030308142       -4.6194906796       -7.5477900000  MEMB      168             0.0000000000
     20814       168  CHL1      H21A           36.0231471514       -4.4521426835       -6.5329900000  MEMB      168             0.0000000000
     20815       168  CHL1      H21B           35.2961379856       -3.6633992418       -8.0232200000  MEMB      168             0.0000000000
     20816       168  CHL1      H21C           36.3965669924       -5.1389939100       -8.1263600000  MEMB      168             0.0000000000
     20817       168  CHL1      C22            34.6061884748       -6.5509871462       -6.1378700000  MEMB      168             0.0000000000
     20818       168  CHL1      H22A           34.7882726627       -7.5376949781       -6.6149000000  MEMB      168             0.0000000000
     20819       168  CHL1      H22B           35.4541752867       -6.3754936639       -5.4418600000  MEMB      168             0.0000000000
     20820       168  CHL1      C23            33.2897208752       -6.6018919149       -5.3417500000  MEMB      168             0.0000000000
     20821       168  CHL1      H23A           33.1331044714       -5.6294261361       -4.8278600000  MEMB      168             0.0000000000
     20822       168  CHL1      H23B           32.3015910057       -6.7960206828       -5.8110400000  MEMB      168             0.0000000000
     20823       168  CHL1      C24            33.3577988728       -7.7072580556       -4.2761800000  MEMB      168             0.0000000000
     20824       168  CHL1      H24A           33.6349706666       -8.6985152167       -4.6943800000  MEMB      168             0.0000000000
     20825       168  CHL1      H24B           34.1536060679       -7.4221790607       -3.5552400000  MEMB      168             0.0000000000
     20826       168  CHL1      C25            32.0112999371       -8.1237411331       -3.5509100000  MEMB      168             0.0000000000
     20827       168  CHL1      H25            31.6961586067       -7.2877056136       -2.8905700000  MEMB      168             0.0000000000
     20828       168  CHL1      C26            30.7648346989       -8.4524955387       -4.4522400000  MEMB      168             0.0000000000
     20829       168  CHL1      H26A           30.6810893556       -7.7599721138       -5.3169400000  MEMB      168             0.0000000000
     20830       168  CHL1      H26B           30.8854426325       -9.4511982470       -4.9238000000  MEMB      168             0.0000000000
     20831       168  CHL1      H26C           29.8068366388       -8.3531785730       -3.8984400000  MEMB      168             0.0000000000
     20832       168  CHL1      C27            32.2677190976       -9.2442754267       -2.5253100000  MEMB      168             0.0000000000
     20833       168  CHL1      H27A           31.4277455749       -9.4438696744       -1.8260600000  MEMB      168             0.0000000000
     20834       168  CHL1      H27B           32.4860765922      -10.2091816940       -3.0308800000  MEMB      168             0.0000000000
     20835       168  CHL1      H27C           33.0750405820       -8.9441829198       -1.8235200000  MEMB      168             0.0000000000
     20836       169  DOPE      N              33.6589217179       10.0135990049      -20.1144147766  MEMB      169             0.0000000000
     20837       169  DOPE      HN1            32.9437212229       10.3828545277      -20.7730030467  MEMB      169             0.0000000000
     20838       169  DOPE      HN2            34.1934743750       10.7954856876      -19.6848723056  MEMB      169             0.0000000000
     20839       169  DOPE      HN3            34.3197503084        9.4103768212      -20.6445361340  MEMB      169             0.0000000000
     20840       169  DOPE      C12            33.0066870572        9.2194511742      -18.9756835169  MEMB      169             0.0000000000
     20841       169  DOPE      H12A           32.1331037998        8.8036435426      -19.5218313120  MEMB      169             0.0000000000
     20842       169  DOPE      H12B           32.5269967028        9.8792942335      -18.2214782562  MEMB      169             0.0000000000
     20843       169  DOPE      C11            33.9400939518        8.1936003104      -18.3269026009  MEMB      169             0.0000000000
     20844       169  DOPE      H11A           33.3234092548        7.7266992732      -17.5293911958  MEMB      169             0.0000000000
     20845       169  DOPE      H11B           34.8012060842        8.7652174577      -17.9193971294  MEMB      169             0.0000000000
     20846       169  DOPE      P              35.3092744496        6.1453800880      -18.9261275404  MEMB      169             0.0000000000
     20847       169  DOPE      O13            36.6031275071        6.7907342819      -19.0409089042  MEMB      169             0.0000000000
     20848       169  DOPE      O14            35.0139821552        5.0173510208      -19.8056044698  MEMB      169             0.0000000000
     20849       169  DOPE      O11            34.9183693674        5.7346969713      -17.4498157280  MEMB      169             0.0000000000
     20850       169  DOPE      O12            34.2998469653        7.2535818788      -19.3605424280  MEMB      169             0.0000000000
     20851       169  DOPE      C1             35.4107568994        4.5285519920      -16.7872908940  MEMB      169             0.0000000000
     20852       169  DOPE      HA             36.5047562044        4.4612379020      -16.9688275782  MEMB      169             0.0000000000
     20853       169  DOPE      HB             35.0201031184        3.5865642568      -17.2281650079  MEMB      169             0.0000000000
     20854       169  DOPE      C2             35.3307679834        4.6976218983      -15.2565396801  MEMB      169             0.0000000000
     20855       169  DOPE      HS             34.2362183716        4.6223219643      -15.0815754759  MEMB      169             0.0000000000
     20856       169  DOPE      O21            35.8912447839        5.9539414852      -14.8825116618  MEMB      169             0.0000000000
     20857       169  DOPE      C21            35.1495783836        6.8039941313      -14.2676418224  MEMB      169             0.0000000000
     20858       169  DOPE      O22            33.9659250281        6.7493429785      -14.1139732181  MEMB      169             0.0000000000
     20859       169  DOPE      C22            36.0157822612        7.9810397466      -13.7797710597  MEMB      169             0.0000000000
     20860       169  DOPE      H2R            35.9933146014        8.6660833525      -14.6541456817  MEMB      169             0.0000000000
     20861       169  DOPE      H2S            37.0444753998        7.5953582465      -13.6143584592  MEMB      169             0.0000000000
     20862       169  DOPE      C3             36.0360925914        3.5855965203      -14.5256970451  MEMB      169             0.0000000000
     20863       169  DOPE      HX             37.0703296800        3.3626888326      -14.8647937172  MEMB      169             0.0000000000
     20864       169  DOPE      HY             35.6387323558        2.5752124907      -14.7613869524  MEMB      169             0.0000000000
     20865       169  DOPE      O31            36.0180560616        3.7785985419      -13.1167693774  MEMB      169             0.0000000000
     20866       169  DOPE      C31            34.8136990279        3.3930760782      -12.5694714780  MEMB      169             0.0000000000
     20867       169  DOPE      O32            33.9746332195        2.6972942140      -13.1261670426  MEMB      169             0.0000000000
     20868       169  DOPE      C32            34.6805174988        3.8949165379      -11.2193278849  MEMB      169             0.0000000000
     20869       169  DOPE      H2X            34.5702737478        2.9740132735      -10.6076872848  MEMB      169             0.0000000000
     20870       169  DOPE      H2Y            35.4356909546        4.6268539375      -10.8611353630  MEMB      169             0.0000000000
     20871       169  DOPE      C23            35.4514223726        8.6739096347      -12.5322611228  MEMB      169             0.0000000000
     20872       169  DOPE      H3R            35.0970340170        7.9362921223      -11.7808291089  MEMB      169             0.0000000000
     20873       169  DOPE      H3S            34.5990186312        9.3142941729      -12.8447290975  MEMB      169             0.0000000000
     20874       169  DOPE      C24            36.4089682306        9.8098616943      -12.0072187102  MEMB      169             0.0000000000
     20875       169  DOPE      H4R            35.7267880610       10.4781432168      -11.4394591231  MEMB      169             0.0000000000
     20876       169  DOPE      H4S            36.6761733634       10.4022515021      -12.9083274541  MEMB      169             0.0000000000
     20877       169  DOPE      C25            37.7053030060        9.4087034341      -11.5015176098  MEMB      169             0.0000000000
     20878       169  DOPE      H5R            38.3662839542       10.2787902866      -11.3005847042  MEMB      169             0.0000000000
     20879       169  DOPE      H5S            38.1535537883        8.8642668406      -12.3599934789  MEMB      169             0.0000000000
     20880       169  DOPE      C26            37.5957142439        8.7468633252      -10.1581920371  MEMB      169             0.0000000000
     20881       169  DOPE      H6R            38.3656830665        7.9531483832      -10.0510215116  MEMB      169             0.0000000000
     20882       169  DOPE      H6S            36.6230518925        8.2202762988      -10.0535249739  MEMB      169             0.0000000000
     20883       169  DOPE      C27            37.7896027051        9.6585750084       -8.9502991029  MEMB      169             0.0000000000
     20884       169  DOPE      H7R            37.0816902725       10.4636558075       -9.2418914102  MEMB      169             0.0000000000
     20885       169  DOPE      H7S            38.7401938608       10.2080737371       -8.7807445654  MEMB      169             0.0000000000
     20886       169  DOPE      C28            37.0673016681        9.1766452798       -7.6572143254  MEMB      169             0.0000000000
     20887       169  DOPE      H8R            37.7597138848        8.5180883939       -7.0904793651  MEMB      169             0.0000000000
     20888       169  DOPE      H8S            36.1516445832        8.5724096318       -7.8326925259  MEMB      169             0.0000000000
     20889       169  DOPE      C29            36.7022727910       10.4360852926       -6.7993947147  MEMB      169             0.0000000000
     20890       169  DOPE      H9R            37.6497566807       10.9804976299       -6.6733418049  MEMB      169             0.0000000000
     20891       169  DOPE      C210           35.5432656540       10.7701040496       -6.2982354959  MEMB      169             0.0000000000
     20892       169  DOPE      H10R           35.3765842682       11.7597404237       -5.8478618432  MEMB      169             0.0000000000
     20893       169  DOPE      C211           34.1602418624       10.0664648705       -6.4449964254  MEMB      169             0.0000000000
     20894       169  DOPE      H11R           34.0492408718        9.7051329349       -7.4897156179  MEMB      169             0.0000000000
     20895       169  DOPE      H11S           33.3338541251       10.8018988395       -6.3423251614  MEMB      169             0.0000000000
     20896       169  DOPE      C212           33.8914243110        8.8498957704       -5.5194856712  MEMB      169             0.0000000000
     20897       169  DOPE      H12R           34.4894345765        8.0371220076       -5.9843554114  MEMB      169             0.0000000000
     20898       169  DOPE      H12S           32.8255819243        8.5779768798       -5.6755664420  MEMB      169             0.0000000000
     20899       169  DOPE      C213           34.1788277546        9.1137689460       -4.0144204101  MEMB      169             0.0000000000
     20900       169  DOPE      H13R           33.4305655228        8.5766567403       -3.3931840711  MEMB      169             0.0000000000
     20901       169  DOPE      H13S           34.0219360236       10.1879084096       -3.7779246992  MEMB      169             0.0000000000
     20902       169  DOPE      C214           35.5509274249        8.7677613018       -3.5247627864  MEMB      169             0.0000000000
     20903       169  DOPE      H14R           36.2312020929        9.6019221911       -3.7999406518  MEMB      169             0.0000000000
     20904       169  DOPE      H14S           36.0746273725        7.8445895527       -3.8531121633  MEMB      169             0.0000000000
     20905       169  DOPE      C215           35.6117470042        8.7345205811       -1.9415158201  MEMB      169             0.0000000000
     20906       169  DOPE      H15R           34.9989996598        7.8290316457       -1.7441549578  MEMB      169             0.0000000000
     20907       169  DOPE      H15S           35.1012837341        9.6497978431       -1.5727130674  MEMB      169             0.0000000000
     20908       169  DOPE      C216           37.0114333427        8.6337972832       -1.2900711049  MEMB      169             0.0000000000
     20909       169  DOPE      H16R           37.4766092272        7.8086723053       -1.8706742653  MEMB      169             0.0000000000
     20910       169  DOPE      H16S           36.9286963419        8.4579486392       -0.1961989917  MEMB      169             0.0000000000
     20911       169  DOPE      C217           37.8829489032        9.8750832898       -1.5221280352  MEMB      169             0.0000000000
     20912       169  DOPE      H17R           37.3346849481       10.7898356061       -1.2107519700  MEMB      169             0.0000000000
     20913       169  DOPE      H17S           38.1158803654        9.9447145477       -2.6062024003  MEMB      169             0.0000000000
     20914       169  DOPE      C218           39.2678957501        9.8025280449       -0.9301142426  MEMB      169             0.0000000000
     20915       169  DOPE      H18R           40.0854908984       10.3158935854       -1.4799451958  MEMB      169             0.0000000000
     20916       169  DOPE      H18S           39.6599072317        8.7648556960       -0.9924380131  MEMB      169             0.0000000000
     20917       169  DOPE      H18T           39.3817192215       10.2343896460        0.0871674995  MEMB      169             0.0000000000
     20918       169  DOPE      C33            33.3363402775        4.5156896532      -11.0660546487  MEMB      169             0.0000000000
     20919       169  DOPE      H3X            32.5574292081        3.8718888660      -11.5277247116  MEMB      169             0.0000000000
     20920       169  DOPE      H3Y            33.2222000480        5.4802909512      -11.6053480299  MEMB      169             0.0000000000
     20921       169  DOPE      C34            33.0329280065        4.6477149786       -9.6012315358  MEMB      169             0.0000000000
     20922       169  DOPE      H4X            33.1059828812        3.6234956360       -9.1770158987  MEMB      169             0.0000000000
     20923       169  DOPE      H4Y            33.7640087263        5.3311316978       -9.1187546433  MEMB      169             0.0000000000
     20924       169  DOPE      C35            31.5541958808        5.2132933738       -9.4025603921  MEMB      169             0.0000000000
     20925       169  DOPE      H5X            30.7605735415        4.7363579773      -10.0165779985  MEMB      169             0.0000000000
     20926       169  DOPE      H5Y            31.4892429669        6.3133520026       -9.5438867881  MEMB      169             0.0000000000
     20927       169  DOPE      C36            31.0903151981        4.9918566400       -7.9266655438  MEMB      169             0.0000000000
     20928       169  DOPE      H6X            31.1871625031        3.9027710734       -7.7296018182  MEMB      169             0.0000000000
     20929       169  DOPE      H6Y            29.9900020036        5.1436941404       -7.9026309708  MEMB      169             0.0000000000
     20930       169  DOPE      C37            31.6453390778        5.9328110835       -6.8222879954  MEMB      169             0.0000000000
     20931       169  DOPE      H7X            32.7510791424        5.8769408914       -6.7298846006  MEMB      169             0.0000000000
     20932       169  DOPE      H7Y            31.5079303344        6.9877054188       -7.1426588026  MEMB      169             0.0000000000
     20933       169  DOPE      C38            30.8648654658        5.7822940410       -5.5377903133  MEMB      169             0.0000000000
     20934       169  DOPE      H8X            29.7893424380        5.9002666565       -5.7900872296  MEMB      169             0.0000000000
     20935       169  DOPE      H8Y            31.2645359331        6.5774442707       -4.8727183829  MEMB      169             0.0000000000
     20936       169  DOPE      C39            30.9300894384        4.3566911969       -5.0488206888  MEMB      169             0.0000000000
     20937       169  DOPE      H9X            30.1766140473        3.7103736248       -5.5226859221  MEMB      169             0.0000000000
     20938       169  DOPE      C310           31.7925333952        3.8235357882       -4.2066937194  MEMB      169             0.0000000000
     20939       169  DOPE      H10X           31.6132062617        2.7653518424       -3.9656781348  MEMB      169             0.0000000000
     20940       169  DOPE      C311           32.9588628984        4.5120573526       -3.5571981609  MEMB      169             0.0000000000
     20941       169  DOPE      H11X           33.1749428128        5.4369630696       -4.1335492947  MEMB      169             0.0000000000
     20942       169  DOPE      H11Y           32.7573597701        4.7777577965       -2.4974246846  MEMB      169             0.0000000000
     20943       169  DOPE      C312           34.1230926522        3.4639557271       -3.6682134034  MEMB      169             0.0000000000
     20944       169  DOPE      H12X           33.9352532894        2.9583705897       -4.6395120313  MEMB      169             0.0000000000
     20945       169  DOPE      H12Y           34.1185464806        2.8417735147       -2.7477842486  MEMB      169             0.0000000000
     20946       169  DOPE      C313           35.5261729823        4.1254377433       -3.9546651945  MEMB      169             0.0000000000
     20947       169  DOPE      H13X           36.0218822647        3.1631536916       -4.2048708086  MEMB      169             0.0000000000
     20948       169  DOPE      H13Y           35.4802766128        4.8677123291       -4.7800399098  MEMB      169             0.0000000000
     20949       169  DOPE      C314           36.0402449999        4.8521253361       -2.7725984924  MEMB      169             0.0000000000
     20950       169  DOPE      H14X           35.7714677398        4.3128437388       -1.8391880884  MEMB      169             0.0000000000
     20951       169  DOPE      H14Y           35.5607086515        5.8048612242       -2.4616977469  MEMB      169             0.0000000000
     20952       169  DOPE      C315           37.5303143896        5.2465967129       -2.8776989309  MEMB      169             0.0000000000
     20953       169  DOPE      H15X           37.6840066791        5.8334096601       -1.9469206067  MEMB      169             0.0000000000
     20954       169  DOPE      H15Y           37.6690710397        5.9606955634       -3.7174206878  MEMB      169             0.0000000000
     20955       169  DOPE      C316           38.4950438128        4.0711839082       -3.1611188426  MEMB      169             0.0000000000
     20956       169  DOPE      H16X           39.5375773642        4.4165018801       -3.3290479755  MEMB      169             0.0000000000
     20957       169  DOPE      H16Y           38.2390778919        3.5419892091       -4.1038568655  MEMB      169             0.0000000000
     20958       169  DOPE      C317           38.5432209864        3.1064391832       -1.9228019713  MEMB      169             0.0000000000
     20959       169  DOPE      H17X           37.4983656034        2.7478016400       -1.8045772120  MEMB      169             0.0000000000
     20960       169  DOPE      H17Y           39.2646596629        2.2846681928       -2.1191167452  MEMB      169             0.0000000000
     20961       169  DOPE      C318           38.8859123219        3.8474626277       -0.6485198402  MEMB      169             0.0000000000
     20962       169  DOPE      H18X           39.0284288501        3.1645593313        0.2161498907  MEMB      169             0.0000000000
     20963       169  DOPE      H18Y           39.8862030043        4.3271561629       -0.7088007507  MEMB      169             0.0000000000
     20964       169  DOPE      H18Z           38.0744406691        4.5722691019       -0.4238196576  MEMB      169             0.0000000000
     20965       170  DOPC      N             -24.0382979589      -30.6632884768      -20.9432574962  MEMB      170             0.0000000000
     20966       170  DOPC      C12           -24.1396148028      -31.3883910910      -19.5543019520  MEMB      170             0.0000000000
     20967       170  DOPC      H12A          -23.5627666562      -32.3007104344      -19.5906298335  MEMB      170             0.0000000000
     20968       170  DOPC      H12B          -25.1781391918      -31.6833330242      -19.5247008710  MEMB      170             0.0000000000
     20969       170  DOPC      C13           -22.7968598588      -29.7451942535      -20.9404175305  MEMB      170             0.0000000000
     20970       170  DOPC      H13A          -21.9161391900      -30.3607052532      -21.0494005583  MEMB      170             0.0000000000
     20971       170  DOPC      H13B          -22.9823018188      -29.0078091891      -21.7074080441  MEMB      170             0.0000000000
     20972       170  DOPC      H13C          -22.6978025954      -29.3939950186      -19.9239301086  MEMB      170             0.0000000000
     20973       170  DOPC      C14           -25.2705701684      -29.7663911108      -21.1936893810  MEMB      170             0.0000000000
     20974       170  DOPC      H14A          -26.2233402059      -30.2656212003      -21.2906353195  MEMB      170             0.0000000000
     20975       170  DOPC      H14B          -25.3382273925      -29.0532596587      -20.3854404961  MEMB      170             0.0000000000
     20976       170  DOPC      H14C          -25.1234506829      -29.2269995532      -22.1177091434  MEMB      170             0.0000000000
     20977       170  DOPC      C15           -24.1290414020      -31.6242274968      -22.0557629949  MEMB      170             0.0000000000
     20978       170  DOPC      H15A          -23.4583417250      -32.4439467906      -21.8445233570  MEMB      170             0.0000000000
     20979       170  DOPC      H15B          -23.8371483179      -31.1911088844      -23.0010709916  MEMB      170             0.0000000000
     20980       170  DOPC      H15C          -25.1202651357      -32.0524308003      -22.0785098469  MEMB      170             0.0000000000
     20981       170  DOPC      C11           -23.7677260497      -30.6306598637      -18.2664287172  MEMB      170             0.0000000000
     20982       170  DOPC      H11A          -24.1886323246      -31.3411771289      -17.5232435350  MEMB      170             0.0000000000
     20983       170  DOPC      H11B          -22.6855729521      -30.3940759992      -18.1810246733  MEMB      170             0.0000000000
     20984       170  DOPC      P             -23.9594896745      -28.3080327204      -17.2189380904  MEMB      170             0.0000000000
     20985       170  DOPC      O13           -24.7909796696      -27.1429086669      -17.4599474363  MEMB      170             0.0000000000
     20986       170  DOPC      O14           -22.5030828003      -28.0762490851      -17.3859463967  MEMB      170             0.0000000000
     20987       170  DOPC      O12           -24.4784504379      -29.3904409826      -18.2119550862  MEMB      170             0.0000000000
     20988       170  DOPC      O11           -24.2467469093      -28.9328322950      -15.7693549226  MEMB      170             0.0000000000
     20989       170  DOPC      C1            -25.5618012082      -29.0442225179      -15.2837669329  MEMB      170             0.0000000000
     20990       170  DOPC      HA            -26.0739885068      -29.9877613797      -15.5696331968  MEMB      170             0.0000000000
     20991       170  DOPC      HB            -26.1659708743      -28.2505681555      -15.7730652342  MEMB      170             0.0000000000
     20992       170  DOPC      C2            -25.6885758331      -28.9071790788      -13.7448643873  MEMB      170             0.0000000000
     20993       170  DOPC      HS            -26.7372469195      -28.5651812824      -13.6120217628  MEMB      170             0.0000000000
     20994       170  DOPC      O21           -24.8821328587      -27.9723384610      -13.0068422975  MEMB      170             0.0000000000
     20995       170  DOPC      C21           -24.7116618091      -26.7424790901      -13.4921754074  MEMB      170             0.0000000000
     20996       170  DOPC      O22           -25.1825092298      -26.2833733951      -14.4810851203  MEMB      170             0.0000000000
     20997       170  DOPC      C22           -23.7994934402      -25.9914926792      -12.5685932711  MEMB      170             0.0000000000
     20998       170  DOPC      H2R           -23.5763005316      -24.9245372978      -12.7833303662  MEMB      170             0.0000000000
     20999       170  DOPC      H2S           -22.7769649077      -26.4250288447      -12.5969294301  MEMB      170             0.0000000000
     21000       170  DOPC      C3            -25.3943662757      -30.2495135049      -12.9973725844  MEMB      170             0.0000000000
     21001       170  DOPC      HX            -26.0081138624      -31.1013254734      -13.3607616809  MEMB      170             0.0000000000
     21002       170  DOPC      HY            -25.7208329444      -30.0639371890      -11.9517619681  MEMB      170             0.0000000000
     21003       170  DOPC      O31           -24.0370062866      -30.4721060472      -13.1034163976  MEMB      170             0.0000000000
     21004       170  DOPC      C31           -23.5731920850      -31.5181719763      -13.7783001091  MEMB      170             0.0000000000
     21005       170  DOPC      O32           -24.2083533282      -32.5345352195      -14.0666681972  MEMB      170             0.0000000000
     21006       170  DOPC      C32           -22.0811543236      -31.2788278728      -14.1611491148  MEMB      170             0.0000000000
     21007       170  DOPC      H2X           -21.7169783889      -32.2554633645      -14.5457005435  MEMB      170             0.0000000000
     21008       170  DOPC      H2Y           -22.0533706670      -30.5330773800      -14.9841955091  MEMB      170             0.0000000000
     21009       170  DOPC      C23           -24.3362890021      -26.0743003229      -11.0503745176  MEMB      170             0.0000000000
     21010       170  DOPC      H3R           -25.2952526513      -26.6293525870      -10.9689712256  MEMB      170             0.0000000000
     21011       170  DOPC      H3S           -24.7316563527      -25.0995818366      -10.6927018764  MEMB      170             0.0000000000
     21012       170  DOPC      C24           -23.2769888399      -26.6049619714      -10.0974445860  MEMB      170             0.0000000000
     21013       170  DOPC      H4R           -22.3958188600      -25.9286540830      -10.1190840118  MEMB      170             0.0000000000
     21014       170  DOPC      H4S           -22.8722373960      -27.5285015967      -10.5638903050  MEMB      170             0.0000000000
     21015       170  DOPC      C25           -23.7196826712      -27.0227727520       -8.6879518919  MEMB      170             0.0000000000
     21016       170  DOPC      H5R           -24.3159211867      -26.1640687829       -8.3118564154  MEMB      170             0.0000000000
     21017       170  DOPC      H5S           -22.8515561337      -27.2678147731       -8.0393913546  MEMB      170             0.0000000000
     21018       170  DOPC      C26           -24.7568484389      -28.1841457633       -8.6424969342  MEMB      170             0.0000000000
     21019       170  DOPC      H6R           -25.6618916171      -27.9514268245       -9.2433796759  MEMB      170             0.0000000000
     21020       170  DOPC      H6S           -25.0394249989      -28.2072948456       -7.5682829472  MEMB      170             0.0000000000
     21021       170  DOPC      C27           -24.0086238719      -29.5310645813       -8.7951296781  MEMB      170             0.0000000000
     21022       170  DOPC      H7R           -23.0277179668      -29.5283667132       -8.2734616144  MEMB      170             0.0000000000
     21023       170  DOPC      H7S           -23.8770548472      -29.6287020051       -9.8939817525  MEMB      170             0.0000000000
     21024       170  DOPC      C28           -24.8956963551      -30.6939328308       -8.3474027565  MEMB      170             0.0000000000
     21025       170  DOPC      H8R           -25.7483899600      -30.8393163448       -9.0446103920  MEMB      170             0.0000000000
     21026       170  DOPC      H8S           -25.2762762728      -30.5084449822       -7.3202345429  MEMB      170             0.0000000000
     21027       170  DOPC      C29           -24.0760490868      -31.9322954015       -8.3820689381  MEMB      170             0.0000000000
     21028       170  DOPC      H9R           -24.1103370358      -32.4638609401       -9.3444946423  MEMB      170             0.0000000000
     21029       170  DOPC      C210          -23.3073884515      -32.4231757828       -7.3917761872  MEMB      170             0.0000000000
     21030       170  DOPC      H10R          -22.6280555912      -33.2624239077       -7.6019410225  MEMB      170             0.0000000000
     21031       170  DOPC      C211          -23.0520308584      -31.9344043790       -5.9859143793  MEMB      170             0.0000000000
     21032       170  DOPC      H11R          -23.3514340517      -30.8882998286       -5.7615396305  MEMB      170             0.0000000000
     21033       170  DOPC      H11S          -21.9663563362      -31.9784797582       -5.7542055237  MEMB      170             0.0000000000
     21034       170  DOPC      C212          -23.9477799116      -32.7351425834       -5.0134263025  MEMB      170             0.0000000000
     21035       170  DOPC      H12R          -23.6215640065      -33.7874421696       -4.8700066455  MEMB      170             0.0000000000
     21036       170  DOPC      H12S          -25.0037445380      -32.6221818582       -5.3397694442  MEMB      170             0.0000000000
     21037       170  DOPC      C213          -23.7743625768      -32.1474460628       -3.6278584257  MEMB      170             0.0000000000
     21038       170  DOPC      H13R          -24.0533888114      -31.0767535619       -3.7282721131  MEMB      170             0.0000000000
     21039       170  DOPC      H13S          -22.6953567805      -32.1789241061       -3.3650338533  MEMB      170             0.0000000000
     21040       170  DOPC      C214          -24.6030967143      -32.8199915239       -2.5147773338  MEMB      170             0.0000000000
     21041       170  DOPC      H14R          -23.8206202161      -33.3228914286       -1.9072049564  MEMB      170             0.0000000000
     21042       170  DOPC      H14S          -25.2738387254      -33.5378348866       -3.0335515508  MEMB      170             0.0000000000
     21043       170  DOPC      C215          -25.3797769664      -31.7870346812       -1.7176182390  MEMB      170             0.0000000000
     21044       170  DOPC      H15R          -26.2329179818      -31.2583897116       -2.1940706077  MEMB      170             0.0000000000
     21045       170  DOPC      H15S          -24.6700205217      -30.9526452359       -1.5322528756  MEMB      170             0.0000000000
     21046       170  DOPC      C216          -25.9126841221      -32.3264820701       -0.3973292370  MEMB      170             0.0000000000
     21047       170  DOPC      H16R          -26.3297708630      -33.3431716341       -0.5607348691  MEMB      170             0.0000000000
     21048       170  DOPC      H16S          -26.6373288929      -31.5938728056        0.0179957176  MEMB      170             0.0000000000
     21049       170  DOPC      C217          -24.8775016875      -32.5621122319        0.7160394831  MEMB      170             0.0000000000
     21050       170  DOPC      H17R          -24.7332428109      -31.5784026399        1.2118472856  MEMB      170             0.0000000000
     21051       170  DOPC      H17S          -23.8630209731      -32.9593043603        0.4983505883  MEMB      170             0.0000000000
     21052       170  DOPC      C218          -25.3732302986      -33.5956286855        1.7508134546  MEMB      170             0.0000000000
     21053       170  DOPC      H18R          -24.7819222787      -33.7336161204        2.6812099105  MEMB      170             0.0000000000
     21054       170  DOPC      H18S          -25.3475764142      -34.5893114030        1.2545709580  MEMB      170             0.0000000000
     21055       170  DOPC      H18T          -26.3900564613      -33.2567235653        2.0432672491  MEMB      170             0.0000000000
     21056       170  DOPC      C33           -21.1740298424      -30.7952671533      -12.9669784244  MEMB      170             0.0000000000
     21057       170  DOPC      H3X           -20.1684163023      -30.8708988533      -13.4331784459  MEMB      170             0.0000000000
     21058       170  DOPC      H3Y           -21.1258887047      -31.5812196646      -12.1832165931  MEMB      170             0.0000000000
     21059       170  DOPC      C34           -21.3275863165      -29.3305519285      -12.5922147727  MEMB      170             0.0000000000
     21060       170  DOPC      H4X           -22.2203857090      -29.2378668881      -11.9375089428  MEMB      170             0.0000000000
     21061       170  DOPC      H4Y           -21.5808148345      -28.7359807655      -13.4959189346  MEMB      170             0.0000000000
     21062       170  DOPC      C35           -20.1848170867      -28.6416466805      -11.8858073353  MEMB      170             0.0000000000
     21063       170  DOPC      H5X           -20.5220839032      -27.5837673329      -11.8475541169  MEMB      170             0.0000000000
     21064       170  DOPC      H5Y           -19.2689361589      -28.5848039886      -12.5121074633  MEMB      170             0.0000000000
     21065       170  DOPC      C36           -19.9294829995      -29.1201824479      -10.4739733850  MEMB      170             0.0000000000
     21066       170  DOPC      H6X           -20.8461890912      -29.4697457255       -9.9526515228  MEMB      170             0.0000000000
     21067       170  DOPC      H6Y           -19.2149716171      -29.9665976279      -10.5598548851  MEMB      170             0.0000000000
     21068       170  DOPC      C37           -19.1426427393      -28.0838195879       -9.6318180709  MEMB      170             0.0000000000
     21069       170  DOPC      H7X           -18.1925812528      -27.9837230746      -10.1989902335  MEMB      170             0.0000000000
     21070       170  DOPC      H7Y           -19.7132820313      -27.1362614715       -9.7358631966  MEMB      170             0.0000000000
     21071       170  DOPC      C38           -18.9305682722      -28.4745028904       -8.1800960942  MEMB      170             0.0000000000
     21072       170  DOPC      H8X           -18.4818908067      -27.6331618393       -7.6098725277  MEMB      170             0.0000000000
     21073       170  DOPC      H8Y           -18.1758213095      -29.2809221361       -8.0602387371  MEMB      170             0.0000000000
     21074       170  DOPC      C39           -20.1327827134      -28.8217880455       -7.2703911286  MEMB      170             0.0000000000
     21075       170  DOPC      H9X           -20.4487059440      -29.8670035928       -7.4034963277  MEMB      170             0.0000000000
     21076       170  DOPC      C310          -20.8214393228      -28.0905595801       -6.2703597834  MEMB      170             0.0000000000
     21077       170  DOPC      H10X          -21.7894879928      -28.4594296578       -5.9004722083  MEMB      170             0.0000000000
     21078       170  DOPC      C311          -20.4448213899      -26.7210594906       -5.7645705458  MEMB      170             0.0000000000
     21079       170  DOPC      H11X          -21.2588391795      -25.9695044404       -5.8474034673  MEMB      170             0.0000000000
     21080       170  DOPC      H11Y          -19.6346336671      -26.2444183834       -6.3567958572  MEMB      170             0.0000000000
     21081       170  DOPC      C312          -19.9850416995      -26.6308296549       -4.2998756339  MEMB      170             0.0000000000
     21082       170  DOPC      H12X          -19.4948061013      -25.6597573587       -4.0740242888  MEMB      170             0.0000000000
     21083       170  DOPC      H12Y          -19.3146634404      -27.4794983822       -4.0455618005  MEMB      170             0.0000000000
     21084       170  DOPC      C313          -21.1706884765      -26.7572923532       -3.2628177220  MEMB      170             0.0000000000
     21085       170  DOPC      H13X          -20.7108252417      -26.9425597032       -2.2685727657  MEMB      170             0.0000000000
     21086       170  DOPC      H13Y          -21.7585553562      -25.8380597437       -3.0536650190  MEMB      170             0.0000000000
     21087       170  DOPC      C314          -22.3336194476      -27.7699786794       -3.4897630499  MEMB      170             0.0000000000
     21088       170  DOPC      H14X          -22.9452902107      -27.4690418640       -4.3670408239  MEMB      170             0.0000000000
     21089       170  DOPC      H14Y          -21.7842224934      -28.6915629736       -3.7781490091  MEMB      170             0.0000000000
     21090       170  DOPC      C315          -23.2120011429      -27.8851169609       -2.2364498185  MEMB      170             0.0000000000
     21091       170  DOPC      H15X          -24.0390247239      -28.5726660224       -2.5150713568  MEMB      170             0.0000000000
     21092       170  DOPC      H15Y          -23.5705826282      -26.8773718988       -1.9361329199  MEMB      170             0.0000000000
     21093       170  DOPC      C316          -22.4575835805      -28.5415151476       -1.1379482650  MEMB      170             0.0000000000
     21094       170  DOPC      H16X          -22.1523636199      -29.5684035935       -1.4323318709  MEMB      170             0.0000000000
     21095       170  DOPC      H16Y          -21.5751047034      -27.9203065629       -0.8740323962  MEMB      170             0.0000000000
     21096       170  DOPC      C317          -23.3004778082      -28.7444695934        0.1549993701  MEMB      170             0.0000000000
     21097       170  DOPC      H17X          -23.6299818242      -27.7435712880        0.5070658917  MEMB      170             0.0000000000
     21098       170  DOPC      H17Y          -24.2010244068      -29.3682680322       -0.0299646313  MEMB      170             0.0000000000
     21099       170  DOPC      C318          -22.3043888376      -29.3496753662        1.1622381459  MEMB      170             0.0000000000
     21100       170  DOPC      H18X          -22.6814170474      -29.1730431470        2.1922728579  MEMB      170             0.0000000000
     21101       170  DOPC      H18Y          -22.1927763011      -30.4290222046        0.9237555201  MEMB      170             0.0000000000
     21102       170  DOPC      H18Z          -21.2958296363      -28.9317318980        0.9561979728  MEMB      170             0.0000000000
     21103       171  DOPC      N              -1.3346586726      -35.8248543372      -19.7629163355  MEMB      171             0.0000000000
     21104       171  DOPC      C12            -1.6645448018      -36.9941485521      -18.9168836206  MEMB      171             0.0000000000
     21105       171  DOPC      H12A           -0.7482662870      -37.2332705791      -18.3976009942  MEMB      171             0.0000000000
     21106       171  DOPC      H12B           -2.1388426037      -37.7014315979      -19.5811067023  MEMB      171             0.0000000000
     21107       171  DOPC      C13             0.0081681243      -36.2445634160      -20.4271981326  MEMB      171             0.0000000000
     21108       171  DOPC      H13A           -0.2072704635      -37.1853007478      -20.9119655347  MEMB      171             0.0000000000
     21109       171  DOPC      H13B            0.3171878172      -35.5354099982      -21.1808612432  MEMB      171             0.0000000000
     21110       171  DOPC      H13C            0.7767457402      -36.4082362512      -19.6863205347  MEMB      171             0.0000000000
     21111       171  DOPC      C14            -1.1403844485      -34.6280184871      -18.9222716868  MEMB      171             0.0000000000
     21112       171  DOPC      H14A           -2.0346510533      -34.1061342684      -18.6151492142  MEMB      171             0.0000000000
     21113       171  DOPC      H14B           -0.4815216664      -34.8602668284      -18.0986451699  MEMB      171             0.0000000000
     21114       171  DOPC      H14C           -0.6148922108      -33.9106900350      -19.5352137541  MEMB      171             0.0000000000
     21115       171  DOPC      C15            -2.3591110242      -35.5691333370      -20.8204714993  MEMB      171             0.0000000000
     21116       171  DOPC      H15A           -2.2906952442      -36.3587471142      -21.5541128239  MEMB      171             0.0000000000
     21117       171  DOPC      H15B           -2.1267089353      -34.6485318160      -21.3351384422  MEMB      171             0.0000000000
     21118       171  DOPC      H15C           -3.3287357881      -35.5511204359      -20.3451787182  MEMB      171             0.0000000000
     21119       171  DOPC      C11            -2.6637571771      -36.7321182917      -17.7797800839  MEMB      171             0.0000000000
     21120       171  DOPC      H11A           -2.8620583452      -37.6739805026      -17.2248988809  MEMB      171             0.0000000000
     21121       171  DOPC      H11B           -2.2256431435      -35.9846166858      -17.0843533425  MEMB      171             0.0000000000
     21122       171  DOPC      P              -5.2699179754      -36.7287105915      -18.5801440713  MEMB      171             0.0000000000
     21123       171  DOPC      O13            -4.9810463383      -38.0498994941      -19.1865040207  MEMB      171             0.0000000000
     21124       171  DOPC      O14            -6.1685701862      -35.7276536557      -19.1863944448  MEMB      171             0.0000000000
     21125       171  DOPC      O12            -3.8379218521      -36.0774880009      -18.2422811076  MEMB      171             0.0000000000
     21126       171  DOPC      O11            -5.8326070955      -37.1190708419      -17.1751550013  MEMB      171             0.0000000000
     21127       171  DOPC      C1             -6.6790728054      -36.2917327863      -16.3752886432  MEMB      171             0.0000000000
     21128       171  DOPC      HA             -7.7459848997      -36.5456072807      -16.5529611982  MEMB      171             0.0000000000
     21129       171  DOPC      HB             -6.5869026268      -35.1874090995      -16.4546287749  MEMB      171             0.0000000000
     21130       171  DOPC      C2             -6.5053653517      -36.5844941991      -14.9035164061  MEMB      171             0.0000000000
     21131       171  DOPC      HS             -7.1274585225      -35.8330305279      -14.3718931340  MEMB      171             0.0000000000
     21132       171  DOPC      O21            -5.1680575013      -36.4404093029      -14.4495018698  MEMB      171             0.0000000000
     21133       171  DOPC      C21            -4.7772168982      -35.2675577258      -14.2605951909  MEMB      171             0.0000000000
     21134       171  DOPC      O22            -5.4215377885      -34.2299293269      -14.2950451376  MEMB      171             0.0000000000
     21135       171  DOPC      C22            -3.2813431298      -35.3908230619      -14.1764766577  MEMB      171             0.0000000000
     21136       171  DOPC      H2R            -2.9392197426      -35.6315888353      -15.2057017795  MEMB      171             0.0000000000
     21137       171  DOPC      H2S            -2.9507724823      -36.3054695450      -13.6393864234  MEMB      171             0.0000000000
     21138       171  DOPC      C3             -7.0404283909      -37.9739244362      -14.3972794815  MEMB      171             0.0000000000
     21139       171  DOPC      HX             -6.3551998544      -38.7640357256      -14.7721218150  MEMB      171             0.0000000000
     21140       171  DOPC      HY             -8.0441303403      -38.0857031155      -14.8603220510  MEMB      171             0.0000000000
     21141       171  DOPC      O31            -7.3007192735      -38.1227242383      -12.9758423347  MEMB      171             0.0000000000
     21142       171  DOPC      C31            -8.1555428256      -37.2852235541      -12.3518201631  MEMB      171             0.0000000000
     21143       171  DOPC      O32            -8.8476527009      -36.5273480310      -12.9503572287  MEMB      171             0.0000000000
     21144       171  DOPC      C32            -8.2292342166      -37.5330103087      -10.8581776827  MEMB      171             0.0000000000
     21145       171  DOPC      H2X            -7.2022923642      -37.7747414775      -10.5099285076  MEMB      171             0.0000000000
     21146       171  DOPC      H2Y            -8.6639016613      -36.6572020911      -10.3305937445  MEMB      171             0.0000000000
     21147       171  DOPC      C23            -2.6215373440      -34.0873826845      -13.7397440739  MEMB      171             0.0000000000
     21148       171  DOPC      H3R            -2.6987829606      -33.2948729506      -14.5145229117  MEMB      171             0.0000000000
     21149       171  DOPC      H3S            -1.5382941867      -34.3251117247      -13.6734861292  MEMB      171             0.0000000000
     21150       171  DOPC      C24            -3.0506442235      -33.5805735971      -12.3216733378  MEMB      171             0.0000000000
     21151       171  DOPC      H4R            -4.1243329117      -33.3502334595      -12.1529822417  MEMB      171             0.0000000000
     21152       171  DOPC      H4S            -2.5964961286      -32.5671569350      -12.2891662473  MEMB      171             0.0000000000
     21153       171  DOPC      C25            -2.5845149992      -34.3666003916      -11.1253883848  MEMB      171             0.0000000000
     21154       171  DOPC      H5R            -1.6836488264      -34.9785379034      -11.3451465074  MEMB      171             0.0000000000
     21155       171  DOPC      H5S            -3.3117757421      -35.1398175359      -10.7974431161  MEMB      171             0.0000000000
     21156       171  DOPC      C26            -2.2726829572      -33.5044577527       -9.8439699506  MEMB      171             0.0000000000
     21157       171  DOPC      H6R            -1.5771404911      -32.6824707443      -10.1176112489  MEMB      171             0.0000000000
     21158       171  DOPC      H6S            -1.6837075294      -34.1346276042       -9.1437452536  MEMB      171             0.0000000000
     21159       171  DOPC      C27            -3.5432370752      -32.9573466235       -9.1807704641  MEMB      171             0.0000000000
     21160       171  DOPC      H7R            -4.1611821658      -32.2913004378       -9.8201828631  MEMB      171             0.0000000000
     21161       171  DOPC      H7S            -3.1600120471      -32.3000746234       -8.3711694622  MEMB      171             0.0000000000
     21162       171  DOPC      C28            -4.5524175504      -34.0661885969       -8.6974866913  MEMB      171             0.0000000000
     21163       171  DOPC      H8R            -4.9657989101      -34.7388974064       -9.4790876736  MEMB      171             0.0000000000
     21164       171  DOPC      H8S            -5.4617571197      -33.6010325776       -8.2603914107  MEMB      171             0.0000000000
     21165       171  DOPC      C29            -3.9368099786      -35.0548585493       -7.6938018061  MEMB      171             0.0000000000
     21166       171  DOPC      H9R            -3.6042684979      -36.0382712091       -8.0575542736  MEMB      171             0.0000000000
     21167       171  DOPC      C210           -4.0274127646      -34.9779183967       -6.2982043919  MEMB      171             0.0000000000
     21168       171  DOPC      H10R           -3.3955822135      -35.6087044512       -5.6556321436  MEMB      171             0.0000000000
     21169       171  DOPC      C211           -4.7810681885      -33.9356378671       -5.4968289243  MEMB      171             0.0000000000
     21170       171  DOPC      H11R           -5.0263369773      -32.9747072050       -5.9976041095  MEMB      171             0.0000000000
     21171       171  DOPC      H11S           -4.1649746342      -33.6608737226       -4.6140749530  MEMB      171             0.0000000000
     21172       171  DOPC      C212           -6.1035573896      -34.5135662631       -5.0713935210  MEMB      171             0.0000000000
     21173       171  DOPC      H12R           -6.8129020992      -34.7140013532       -5.9026437318  MEMB      171             0.0000000000
     21174       171  DOPC      H12S           -6.6388629015      -33.7204369842       -4.5068453851  MEMB      171             0.0000000000
     21175       171  DOPC      C213           -6.0350147267      -35.7339301257       -4.1484729908  MEMB      171             0.0000000000
     21176       171  DOPC      H13R           -5.5653349581      -35.4122106772       -3.1944194616  MEMB      171             0.0000000000
     21177       171  DOPC      H13S           -5.3899916885      -36.5274236439       -4.5827934850  MEMB      171             0.0000000000
     21178       171  DOPC      C214           -7.4643556912      -36.2617143895       -3.8525206374  MEMB      171             0.0000000000
     21179       171  DOPC      H14R           -7.7860704556      -36.6772637410       -4.8313672012  MEMB      171             0.0000000000
     21180       171  DOPC      H14S           -8.2118536954      -35.5005652473       -3.5423269974  MEMB      171             0.0000000000
     21181       171  DOPC      C215           -7.4891102538      -37.3963599292       -2.8342282354  MEMB      171             0.0000000000
     21182       171  DOPC      H15R           -8.5017879538      -37.4450904940       -2.3798825760  MEMB      171             0.0000000000
     21183       171  DOPC      H15S           -6.8715188171      -37.0623880571       -1.9732021775  MEMB      171             0.0000000000
     21184       171  DOPC      C216           -6.9762770502      -38.7677912089       -3.4317680205  MEMB      171             0.0000000000
     21185       171  DOPC      H16R           -5.9698605220      -38.7069464028       -3.8983998983  MEMB      171             0.0000000000
     21186       171  DOPC      H16S           -7.6679076707      -39.0523626076       -4.2533444050  MEMB      171             0.0000000000
     21187       171  DOPC      C217           -7.0752314197      -39.8358275679       -2.3729954864  MEMB      171             0.0000000000
     21188       171  DOPC      H17R           -7.9507560359      -39.4712931238       -1.7942967939  MEMB      171             0.0000000000
     21189       171  DOPC      H17S           -6.1844328651      -39.7570473882       -1.7137587418  MEMB      171             0.0000000000
     21190       171  DOPC      C218           -7.4055160082      -41.2893352171       -2.8152459593  MEMB      171             0.0000000000
     21191       171  DOPC      H18R           -7.0759378042      -42.0264272766       -2.0520974723  MEMB      171             0.0000000000
     21192       171  DOPC      H18S           -6.9933786550      -41.4341659165       -3.8367588428  MEMB      171             0.0000000000
     21193       171  DOPC      H18T           -8.5087399145      -41.4058337100       -2.8756330086  MEMB      171             0.0000000000
     21194       171  DOPC      C33            -9.1023137083      -38.7508828302      -10.4723826724  MEMB      171             0.0000000000
     21195       171  DOPC      H3X            -8.7860718672      -39.6154989849      -11.0942753214  MEMB      171             0.0000000000
     21196       171  DOPC      H3Y           -10.1614538812      -38.6077866755      -10.7758077672  MEMB      171             0.0000000000
     21197       171  DOPC      C34            -8.8756607610      -39.2190672714       -9.0388247259  MEMB      171             0.0000000000
     21198       171  DOPC      H4X            -9.5803606047      -40.0152921845       -8.7167285108  MEMB      171             0.0000000000
     21199       171  DOPC      H4Y            -8.9325058988      -38.3027671991       -8.4131379117  MEMB      171             0.0000000000
     21200       171  DOPC      C35            -7.3988407770      -39.6714180620       -8.7028171939  MEMB      171             0.0000000000
     21201       171  DOPC      H5X            -6.7070187834      -38.8152885035       -8.8536333401  MEMB      171             0.0000000000
     21202       171  DOPC      H5Y            -7.1326380209      -40.4333117988       -9.4663449787  MEMB      171             0.0000000000
     21203       171  DOPC      C36            -7.1109229933      -40.0912843520       -7.2449901550  MEMB      171             0.0000000000
     21204       171  DOPC      H6X            -6.9183268415      -39.1414046084       -6.7018914441  MEMB      171             0.0000000000
     21205       171  DOPC      H6Y            -7.9276418830      -40.4767213720       -6.5978967511  MEMB      171             0.0000000000
     21206       171  DOPC      C37            -5.9670409357      -41.1498204231       -7.0044224537  MEMB      171             0.0000000000
     21207       171  DOPC      H7X            -6.0419844145      -41.4253257063       -5.9307363604  MEMB      171             0.0000000000
     21208       171  DOPC      H7Y            -6.1078457561      -42.0532271371       -7.6355726086  MEMB      171             0.0000000000
     21209       171  DOPC      C38            -4.5326210278      -40.6910671220       -7.2901735938  MEMB      171             0.0000000000
     21210       171  DOPC      H8X            -4.3411836478      -40.6225161131       -8.3824064956  MEMB      171             0.0000000000
     21211       171  DOPC      H8Y            -3.7997531030      -41.4821883858       -7.0230544800  MEMB      171             0.0000000000
     21212       171  DOPC      C39            -4.1767621714      -39.4064528712       -6.6419139093  MEMB      171             0.0000000000
     21213       171  DOPC      H9X            -4.9375665822      -38.6480131194       -6.8784430689  MEMB      171             0.0000000000
     21214       171  DOPC      C310           -3.2082827013      -39.1874424999       -5.7225180943  MEMB      171             0.0000000000
     21215       171  DOPC      H10X           -3.0317762849      -38.1643122055       -5.3591312679  MEMB      171             0.0000000000
     21216       171  DOPC      C311           -2.2858790906      -40.1968286656       -5.1040221897  MEMB      171             0.0000000000
     21217       171  DOPC      H11X           -1.2998045869      -39.6852074717       -5.1189177396  MEMB      171             0.0000000000
     21218       171  DOPC      H11Y           -2.1460319237      -41.0904738885       -5.7491283312  MEMB      171             0.0000000000
     21219       171  DOPC      C312           -2.6747352878      -40.6629130888       -3.6466515631  MEMB      171             0.0000000000
     21220       171  DOPC      H12X           -2.0501693709      -41.4833741757       -3.2330308181  MEMB      171             0.0000000000
     21221       171  DOPC      H12Y           -3.6906371249      -41.0985067801       -3.7585566943  MEMB      171             0.0000000000
     21222       171  DOPC      C313           -2.6613554979      -39.4833524823       -2.6196189091  MEMB      171             0.0000000000
     21223       171  DOPC      H13X           -1.6599659822      -39.0040501598       -2.6621583424  MEMB      171             0.0000000000
     21224       171  DOPC      H13Y           -3.4685135792      -38.7550824824       -2.8486159612  MEMB      171             0.0000000000
     21225       171  DOPC      C314           -2.9425540405      -39.9657279391       -1.2008257699  MEMB      171             0.0000000000
     21226       171  DOPC      H14X           -3.6477591445      -40.8218059803       -1.2651434329  MEMB      171             0.0000000000
     21227       171  DOPC      H14Y           -1.9373979771      -40.2938586148       -0.8597793513  MEMB      171             0.0000000000
     21228       171  DOPC      C315           -3.5042928584      -38.8395961515       -0.2720872622  MEMB      171             0.0000000000
     21229       171  DOPC      H15X           -4.4415735353      -38.4099221483       -0.6858566343  MEMB      171             0.0000000000
     21230       171  DOPC      H15Y           -2.6961550834      -38.0902634314       -0.1316064355  MEMB      171             0.0000000000
     21231       171  DOPC      C316           -3.6987954995      -39.4295625431        1.1420161924  MEMB      171             0.0000000000
     21232       171  DOPC      H16X           -4.4385041985      -40.2547468687        1.0631325930  MEMB      171             0.0000000000
     21233       171  DOPC      H16Y           -2.7579537038      -39.9497148479        1.4223350660  MEMB      171             0.0000000000
     21234       171  DOPC      C317           -4.1596351046      -38.3052701593        2.1270180177  MEMB      171             0.0000000000
     21235       171  DOPC      H17X           -4.4610635522      -38.7124207061        3.1158009757  MEMB      171             0.0000000000
     21236       171  DOPC      H17Y           -3.3731946101      -37.5489887408        2.3364714411  MEMB      171             0.0000000000
     21237       171  DOPC      C318           -5.3975604338      -37.4697167899        1.7056973849  MEMB      171             0.0000000000
     21238       171  DOPC      H18X           -6.3181802769      -38.0910903801        1.6797127311  MEMB      171             0.0000000000
     21239       171  DOPC      H18Y           -5.4654996932      -36.6696523335        2.4735540411  MEMB      171             0.0000000000
     21240       171  DOPC      H18Z           -5.4202405175      -37.1025398666        0.6573715156  MEMB      171             0.0000000000
     21241       172  DOPE      N              22.9529337040       26.7776567630      -21.5510914336  MEMB      172             0.0000000000
     21242       172  DOPE      HN1            23.4465416835       25.8654999670      -21.6280425504  MEMB      172             0.0000000000
     21243       172  DOPE      HN2            22.3871882500       26.7914588019      -20.6785426443  MEMB      172             0.0000000000
     21244       172  DOPE      HN3            22.2852729421       26.8592167666      -22.3442984714  MEMB      172             0.0000000000
     21245       172  DOPE      C12            23.9336015421       27.9793356991      -21.4961537565  MEMB      172             0.0000000000
     21246       172  DOPE      H12A           23.4703575604       28.8793771937      -21.9540308876  MEMB      172             0.0000000000
     21247       172  DOPE      H12B           24.7581518090       27.7843202457      -22.2147684128  MEMB      172             0.0000000000
     21248       172  DOPE      C11            24.2998972260       28.1556286627      -20.0310843240  MEMB      172             0.0000000000
     21249       172  DOPE      H11A           25.0145700430       29.0046017954      -20.0840786128  MEMB      172             0.0000000000
     21250       172  DOPE      H11B           24.8160884316       27.2706680092      -19.6013027364  MEMB      172             0.0000000000
     21251       172  DOPE      P              23.1400763380       28.6277236265      -17.7246929703  MEMB      172             0.0000000000
     21252       172  DOPE      O13            22.2582567856       27.5593749123      -17.2575025791  MEMB      172             0.0000000000
     21253       172  DOPE      O14            22.6954101325       30.0714969213      -17.5504200246  MEMB      172             0.0000000000
     21254       172  DOPE      O11            24.5551704524       28.3115058885      -17.1962178934  MEMB      172             0.0000000000
     21255       172  DOPE      O12            23.2393274262       28.4369407275      -19.1928370284  MEMB      172             0.0000000000
     21256       172  DOPE      C1             25.1751951736       29.2421461294      -16.2763408301  MEMB      172             0.0000000000
     21257       172  DOPE      HA             24.8912942160       30.3103456730      -16.3889057608  MEMB      172             0.0000000000
     21258       172  DOPE      HB             26.2684258947       29.2619488318      -16.4732558512  MEMB      172             0.0000000000
     21259       172  DOPE      C2             24.8676924309       28.7934668653      -14.7936453644  MEMB      172             0.0000000000
     21260       172  DOPE      HS             25.0417819095       27.6969344171      -14.8340221171  MEMB      172             0.0000000000
     21261       172  DOPE      O21            23.5211673995       29.1228131225      -14.5889364910  MEMB      172             0.0000000000
     21262       172  DOPE      C21            22.8285745698       28.5526982677      -13.6449878022  MEMB      172             0.0000000000
     21263       172  DOPE      O22            23.2297745656       27.6445566227      -12.9284332602  MEMB      172             0.0000000000
     21264       172  DOPE      C22            21.3705567244       29.0333604045      -13.6735497611  MEMB      172             0.0000000000
     21265       172  DOPE      H2R            20.7107986595       28.2356482728      -14.0769054860  MEMB      172             0.0000000000
     21266       172  DOPE      H2S            21.2904707248       29.9251108412      -14.3313406086  MEMB      172             0.0000000000
     21267       172  DOPE      C3             25.8185927927       29.5171484374      -13.8438217726  MEMB      172             0.0000000000
     21268       172  DOPE      HX             25.5830336438       30.5957228961      -13.9683604271  MEMB      172             0.0000000000
     21269       172  DOPE      HY             26.8697608232       29.3866556702      -14.1789916289  MEMB      172             0.0000000000
     21270       172  DOPE      O31            25.6194777074       29.1754477297      -12.4471324066  MEMB      172             0.0000000000
     21271       172  DOPE      C31            24.8496587789       29.9432620621      -11.6053506945  MEMB      172             0.0000000000
     21272       172  DOPE      O32            24.4007172965       31.0440015631      -11.7656750306  MEMB      172             0.0000000000
     21273       172  DOPE      C32            24.6187850260       29.1603858453      -10.3441754077  MEMB      172             0.0000000000
     21274       172  DOPE      H2X            23.6579944107       28.6025406503      -10.3475174008  MEMB      172             0.0000000000
     21275       172  DOPE      H2Y            25.4256753760       28.4188149069      -10.1616337202  MEMB      172             0.0000000000
     21276       172  DOPE      C23            20.9924217226       29.5629474869      -12.2916972635  MEMB      172             0.0000000000
     21277       172  DOPE      H3R            20.6451848851       30.5990768080      -12.4921566708  MEMB      172             0.0000000000
     21278       172  DOPE      H3S            21.8714707218       29.7776045472      -11.6470922265  MEMB      172             0.0000000000
     21279       172  DOPE      C24            19.8472437197       28.8625059897      -11.4898232248  MEMB      172             0.0000000000
     21280       172  DOPE      H4R            19.9157455416       27.7570745891      -11.4023594356  MEMB      172             0.0000000000
     21281       172  DOPE      H4S            18.8573971872       29.0355722577      -11.9637144082  MEMB      172             0.0000000000
     21282       172  DOPE      C25            19.8325084240       29.2216863523       -9.9633333940  MEMB      172             0.0000000000
     21283       172  DOPE      H5R            19.9068727753       30.3300879989       -9.9787215008  MEMB      172             0.0000000000
     21284       172  DOPE      H5S            20.7445716309       28.8340762289       -9.4611185925  MEMB      172             0.0000000000
     21285       172  DOPE      C26            18.5188767870       28.8695331953       -9.2207864289  MEMB      172             0.0000000000
     21286       172  DOPE      H6R            17.6957649992       29.5794256934       -9.4506990362  MEMB      172             0.0000000000
     21287       172  DOPE      H6S            18.7812692815       29.0012893038       -8.1492862418  MEMB      172             0.0000000000
     21288       172  DOPE      C27            17.9670178900       27.4007484844       -9.1335586335  MEMB      172             0.0000000000
     21289       172  DOPE      H7R            17.9878678562       26.9976059448      -10.1686250041  MEMB      172             0.0000000000
     21290       172  DOPE      H7S            16.9003711951       27.3739974837       -8.8239296378  MEMB      172             0.0000000000
     21291       172  DOPE      C28            18.7869313828       26.3897156566       -8.3364039374  MEMB      172             0.0000000000
     21292       172  DOPE      H8R            19.8528256952       26.2812103683       -8.6303722065  MEMB      172             0.0000000000
     21293       172  DOPE      H8S            18.4249547164       25.3693792720       -8.5858177854  MEMB      172             0.0000000000
     21294       172  DOPE      C29            18.5499953529       26.5846478463       -6.8848792386  MEMB      172             0.0000000000
     21295       172  DOPE      H9R            17.5097370595       26.3572668920       -6.6089066058  MEMB      172             0.0000000000
     21296       172  DOPE      C210           19.3739289224       27.0469809965       -5.9867737740  MEMB      172             0.0000000000
     21297       172  DOPE      H10R           19.0846516494       26.8781342303       -4.9390095175  MEMB      172             0.0000000000
     21298       172  DOPE      C211           20.8059307132       27.5811877506       -6.2154465164  MEMB      172             0.0000000000
     21299       172  DOPE      H11R           20.9320938844       28.5938357290       -5.7761881443  MEMB      172             0.0000000000
     21300       172  DOPE      H11S           20.9840783013       27.6289054119       -7.3110316213  MEMB      172             0.0000000000
     21301       172  DOPE      C212           21.9930453703       26.7965846265       -5.5893980659  MEMB      172             0.0000000000
     21302       172  DOPE      H12R           22.9357569391       26.9037626937       -6.1674372240  MEMB      172             0.0000000000
     21303       172  DOPE      H12S           21.7501799400       25.7158982039       -5.6757354540  MEMB      172             0.0000000000
     21304       172  DOPE      C213           22.2294985224       27.2063951976       -4.1554550552  MEMB      172             0.0000000000
     21305       172  DOPE      H13R           21.2602971914       27.2955506712       -3.6197116507  MEMB      172             0.0000000000
     21306       172  DOPE      H13S           22.6829565656       28.2188289970       -4.2160729840  MEMB      172             0.0000000000
     21307       172  DOPE      C214           23.3058841597       26.3872436675       -3.4324814843  MEMB      172             0.0000000000
     21308       172  DOPE      H14R           24.2026105172       26.4607943944       -4.0842428950  MEMB      172             0.0000000000
     21309       172  DOPE      H14S           23.0675964041       25.3031413603       -3.3849187855  MEMB      172             0.0000000000
     21310       172  DOPE      C215           23.7161689716       26.8875029114       -2.0014755468  MEMB      172             0.0000000000
     21311       172  DOPE      H15R           22.9089929418       26.6803025251       -1.2667262186  MEMB      172             0.0000000000
     21312       172  DOPE      H15S           23.8569649618       27.9882563068       -2.0547635557  MEMB      172             0.0000000000
     21313       172  DOPE      C216           24.9333156554       26.0796111721       -1.5050370731  MEMB      172             0.0000000000
     21314       172  DOPE      H16R           25.7272902364       26.2766982487       -2.2567563560  MEMB      172             0.0000000000
     21315       172  DOPE      H16S           24.6503383695       25.0146412148       -1.6467547881  MEMB      172             0.0000000000
     21316       172  DOPE      C217           25.3927593385       26.4338089160       -0.0624322807  MEMB      172             0.0000000000
     21317       172  DOPE      H17R           24.4465289323       26.4279592029        0.5197485665  MEMB      172             0.0000000000
     21318       172  DOPE      H17S           25.8075845966       27.4634158268       -0.1088088932  MEMB      172             0.0000000000
     21319       172  DOPE      C218           26.4448045014       25.4063601579        0.5296508701  MEMB      172             0.0000000000
     21320       172  DOPE      H18R           26.0627297320       24.3638381974        0.4910804749  MEMB      172             0.0000000000
     21321       172  DOPE      H18S           26.7138123872       25.6260013914        1.5849765619  MEMB      172             0.0000000000
     21322       172  DOPE      H18T           27.3937429029       25.5395070458       -0.0325855127  MEMB      172             0.0000000000
     21323       172  DOPE      C33            24.6038670806       30.1111361426       -9.1316610982  MEMB      172             0.0000000000
     21324       172  DOPE      H3X            25.1794004789       31.0448214116       -9.3086187286  MEMB      172             0.0000000000
     21325       172  DOPE      H3Y            25.0999362285       29.6026896573       -8.2774259156  MEMB      172             0.0000000000
     21326       172  DOPE      C34            23.2125332369       30.6372292836       -8.5953036762  MEMB      172             0.0000000000
     21327       172  DOPE      H4X            22.7597384159       31.2416818987       -9.4101263394  MEMB      172             0.0000000000
     21328       172  DOPE      H4Y            22.4994054228       29.8011571852       -8.4317410204  MEMB      172             0.0000000000
     21329       172  DOPE      C35            23.2341351663       31.5214152998       -7.3959060067  MEMB      172             0.0000000000
     21330       172  DOPE      H5X            23.9735282639       32.3362120259       -7.5499368756  MEMB      172             0.0000000000
     21331       172  DOPE      H5Y            23.5980224542       30.9637243357       -6.5065876192  MEMB      172             0.0000000000
     21332       172  DOPE      C36            21.9133708894       32.3067822787       -7.0815444706  MEMB      172             0.0000000000
     21333       172  DOPE      H6X            21.5884792138       32.9291466425       -7.9426076564  MEMB      172             0.0000000000
     21334       172  DOPE      H6Y            22.2596947659       33.0019713343       -6.2871315670  MEMB      172             0.0000000000
     21335       172  DOPE      C37            20.7861063118       31.4395450381       -6.6086780942  MEMB      172             0.0000000000
     21336       172  DOPE      H7X            20.7217462568       30.5965218280       -7.3294353514  MEMB      172             0.0000000000
     21337       172  DOPE      H7Y            21.1825354375       31.0040449808       -5.6666036836  MEMB      172             0.0000000000
     21338       172  DOPE      C38            19.4870924994       32.1232500359       -6.2353059826  MEMB      172             0.0000000000
     21339       172  DOPE      H8X            19.1103940413       32.4894186725       -7.2142542004  MEMB      172             0.0000000000
     21340       172  DOPE      H8Y            19.8791586027       32.9803823950       -5.6471480421  MEMB      172             0.0000000000
     21341       172  DOPE      C39            18.4549140996       31.1623016381       -5.7345430522  MEMB      172             0.0000000000
     21342       172  DOPE      H9X            18.0133720903       30.5619552469       -6.5436321946  MEMB      172             0.0000000000
     21343       172  DOPE      C310           18.0200136989       30.9905631968       -4.4775306492  MEMB      172             0.0000000000
     21344       172  DOPE      H10X           17.2941787603       30.2239063760       -4.1686607545  MEMB      172             0.0000000000
     21345       172  DOPE      C311           18.5870312873       31.8232674921       -3.2359213705  MEMB      172             0.0000000000
     21346       172  DOPE      H11X           19.4271171290       32.5381026795       -3.3685376210  MEMB      172             0.0000000000
     21347       172  DOPE      H11Y           17.6968451523       32.4526707321       -3.0220506896  MEMB      172             0.0000000000
     21348       172  DOPE      C312           19.0029416314       30.8858451554       -2.0835996675  MEMB      172             0.0000000000
     21349       172  DOPE      H12X           18.3038128212       30.0550619713       -1.8483557465  MEMB      172             0.0000000000
     21350       172  DOPE      H12Y           19.2150379787       31.4476604863       -1.1488793797  MEMB      172             0.0000000000
     21351       172  DOPE      C313           20.3024240446       30.1505511705       -2.4134199023  MEMB      172             0.0000000000
     21352       172  DOPE      H13X           20.1553651084       29.5398861259       -3.3298158411  MEMB      172             0.0000000000
     21353       172  DOPE      H13Y           21.1260095027       30.8415912919       -2.6935822255  MEMB      172             0.0000000000
     21354       172  DOPE      C314           20.6979586648       29.2893939137       -1.2180964014  MEMB      172             0.0000000000
     21355       172  DOPE      H14X           21.5788605149       28.6290134254       -1.3671967228  MEMB      172             0.0000000000
     21356       172  DOPE      H14Y           19.8697055633       28.5612572979       -1.0834316242  MEMB      172             0.0000000000
     21357       172  DOPE      C315           20.9557587641       29.9348760613        0.1264735506  MEMB      172             0.0000000000
     21358       172  DOPE      H15X           21.1308441742       29.0721413863        0.8042301227  MEMB      172             0.0000000000
     21359       172  DOPE      H15Y           20.0887822191       30.4599937949        0.5813632464  MEMB      172             0.0000000000
     21360       172  DOPE      C316           22.1012643220       30.9538609350        0.0481107392  MEMB      172             0.0000000000
     21361       172  DOPE      H16X           21.7567735395       31.8160750098       -0.5619989045  MEMB      172             0.0000000000
     21362       172  DOPE      H16Y           22.9648743476       30.4653421826       -0.4517374186  MEMB      172             0.0000000000
     21363       172  DOPE      C317           22.6935965266       31.3915837265        1.3784154687  MEMB      172             0.0000000000
     21364       172  DOPE      H17X           23.3306074764       32.2675557161        1.1310080811  MEMB      172             0.0000000000
     21365       172  DOPE      H17Y           21.8318429801       31.6082580859        2.0453150494  MEMB      172             0.0000000000
     21366       172  DOPE      C318           23.5906452030       30.3306711847        2.0420051441  MEMB      172             0.0000000000
     21367       172  DOPE      H18X           24.3719959809       29.8462027284        1.4182227449  MEMB      172             0.0000000000
     21368       172  DOPE      H18Y           24.2126791723       30.7721757087        2.8497591427  MEMB      172             0.0000000000
     21369       172  DOPE      H18Z           22.9110567828       29.5363460605        2.4182061781  MEMB      172             0.0000000000
     21370       173  23SM      N             -12.2545617856      -34.6618070842      -27.4843115243  MEMB      173             0.0000000000
     21371       173  23SM      C15           -11.0330454664      -33.9695787068      -27.8391499616  MEMB      173             0.0000000000
     21372       173  23SM      H15A          -10.8108244371      -34.1381165331      -28.8825160350  MEMB      173             0.0000000000
     21373       173  23SM      H15B          -10.2899237400      -34.3538272918      -27.1561250358  MEMB      173             0.0000000000
     21374       173  23SM      H15C          -11.1374440698      -32.9228260801      -27.5945895244  MEMB      173             0.0000000000
     21375       173  23SM      C14           -13.4503450214      -34.0528435117      -28.1431025836  MEMB      173             0.0000000000
     21376       173  23SM      H14A          -14.3162915732      -34.5295775092      -27.7080607806  MEMB      173             0.0000000000
     21377       173  23SM      H14B          -13.4604639788      -34.2386847495      -29.2069449877  MEMB      173             0.0000000000
     21378       173  23SM      H14C          -13.3881676370      -33.0232272855      -27.8230643707  MEMB      173             0.0000000000
     21379       173  23SM      C13           -12.0390272764      -36.1697894093      -27.8098683327  MEMB      173             0.0000000000
     21380       173  23SM      H13A          -11.1974215852      -36.5832885495      -27.2740340552  MEMB      173             0.0000000000
     21381       173  23SM      H13B          -11.9160757801      -36.2879436865      -28.8763215732  MEMB      173             0.0000000000
     21382       173  23SM      H13C          -12.9592730337      -36.6603881692      -27.5290468839  MEMB      173             0.0000000000
     21383       173  23SM      C12           -12.3837313251      -34.5622249160      -26.0152553944  MEMB      173             0.0000000000
     21384       173  23SM      H12A          -13.3327498305      -35.0265418544      -25.7912608246  MEMB      173             0.0000000000
     21385       173  23SM      H12B          -12.6701587286      -33.5542272204      -25.7539128265  MEMB      173             0.0000000000
     21386       173  23SM      C11           -11.2339303582      -34.9168358045      -24.9804985815  MEMB      173             0.0000000000
     21387       173  23SM      H11A          -11.6825890013      -35.2882432090      -24.0344103943  MEMB      173             0.0000000000
     21388       173  23SM      H11B          -10.8222894146      -33.9231405699      -24.7022133266  MEMB      173             0.0000000000
     21389       173  23SM      P              -9.9608637148      -37.1313723256      -24.7925798404  MEMB      173             0.0000000000
     21390       173  23SM      O13           -11.1342841054      -38.0289653198      -25.0268049987  MEMB      173             0.0000000000
     21391       173  23SM      O14            -8.6365111807      -37.5575369080      -25.2011271223  MEMB      173             0.0000000000
     21392       173  23SM      O11            -9.8494296888      -36.7369304818      -23.2096182018  MEMB      173             0.0000000000
     21393       173  23SM      O12           -10.2223911625      -35.7313779090      -25.4976834544  MEMB      173             0.0000000000
     21394       173  23SM      C1S           -10.7273117778      -37.4237117816      -22.3314644718  MEMB      173             0.0000000000
     21395       173  23SM      H1S           -10.3971894056      -38.4752115387      -22.4717800360  MEMB      173             0.0000000000
     21396       173  23SM      H1T           -11.7844068735      -37.4038811037      -22.6727525725  MEMB      173             0.0000000000
     21397       173  23SM      NF            -11.0402770060      -37.8501331632      -19.9503355263  MEMB      173             0.0000000000
     21398       173  23SM      HNF           -11.7545892316      -37.4659508309      -19.3705329001  MEMB      173             0.0000000000
     21399       173  23SM      C2S           -10.4908726750      -36.9134653679      -20.9602470244  MEMB      173             0.0000000000
     21400       173  23SM      H2S            -9.4103317706      -36.8205746136      -20.7191586222  MEMB      173             0.0000000000
     21401       173  23SM      C3S           -11.0996411821      -35.5446581859      -20.7763143913  MEMB      173             0.0000000000
     21402       173  23SM      H3S           -12.1208851975      -35.5328126241      -21.2136255618  MEMB      173             0.0000000000
     21403       173  23SM      O3            -10.3450540021      -34.5677466322      -21.5527958082  MEMB      173             0.0000000000
     21404       173  23SM      HO3            -9.6284539435      -35.1810246692      -21.7316098601  MEMB      173             0.0000000000
     21405       173  23SM      C4S           -11.0319311168      -35.1592482974      -19.3418986335  MEMB      173             0.0000000000
     21406       173  23SM      H4S           -10.0520800802      -34.7342178120      -19.0787619709  MEMB      173             0.0000000000
     21407       173  23SM      C5S           -12.0805843286      -35.2731295917      -18.5175139932  MEMB      173             0.0000000000
     21408       173  23SM      H5S           -12.9954476728      -35.7159060661      -18.9381967670  MEMB      173             0.0000000000
     21409       173  23SM      C6S           -12.1605038569      -34.9163459604      -17.0402641051  MEMB      173             0.0000000000
     21410       173  23SM      H6S           -12.9434875764      -34.1281776643      -17.0472217477  MEMB      173             0.0000000000
     21411       173  23SM      H6T           -11.3146816763      -34.3365332741      -16.6128028100  MEMB      173             0.0000000000
     21412       173  23SM      C7S           -12.7200932997      -36.0487359930      -16.1694767660  MEMB      173             0.0000000000
     21413       173  23SM      H7S           -12.0698048511      -36.9254761541      -16.3762920723  MEMB      173             0.0000000000
     21414       173  23SM      H7T           -13.8023116985      -36.2723958292      -16.2839352689  MEMB      173             0.0000000000
     21415       173  23SM      C8S           -12.6517763221      -35.6669310688      -14.7267539833  MEMB      173             0.0000000000
     21416       173  23SM      H8S           -11.6506207624      -35.2690229813      -14.4553178713  MEMB      173             0.0000000000
     21417       173  23SM      H8T           -12.5995003672      -36.5759312806      -14.0901168430  MEMB      173             0.0000000000
     21418       173  23SM      C9S           -13.6606240818      -34.6803685820      -14.2165927482  MEMB      173             0.0000000000
     21419       173  23SM      H9S           -14.5874150391      -35.2695392656      -14.0484934989  MEMB      173             0.0000000000
     21420       173  23SM      H9T           -13.8447322537      -33.8092770978      -14.8811416295  MEMB      173             0.0000000000
     21421       173  23SM      C10S          -13.3611864498      -34.0982668379      -12.9063706666  MEMB      173             0.0000000000
     21422       173  23SM      H10S          -14.1009882005      -33.2985553034      -12.6884805046  MEMB      173             0.0000000000
     21423       173  23SM      H10T          -12.3987622263      -33.5565437043      -13.0271849803  MEMB      173             0.0000000000
     21424       173  23SM      C11S          -13.2521415731      -35.0834922643      -11.6909818998  MEMB      173             0.0000000000
     21425       173  23SM      H11S          -12.4445433590      -35.7965919696      -11.9622658417  MEMB      173             0.0000000000
     21426       173  23SM      H11T          -14.2373710624      -35.5903073532      -11.6086256445  MEMB      173             0.0000000000
     21427       173  23SM      C12S          -13.0953079066      -34.2422314595      -10.4102524889  MEMB      173             0.0000000000
     21428       173  23SM      H12S          -13.5668454103      -33.2368166924      -10.4436368369  MEMB      173             0.0000000000
     21429       173  23SM      H12T          -12.0262951316      -34.0845757559      -10.1520328827  MEMB      173             0.0000000000
     21430       173  23SM      C13S          -13.8017739948      -35.0166722227       -9.2564647320  MEMB      173             0.0000000000
     21431       173  23SM      H13S          -13.5091771048      -36.0845692254       -9.3475920298  MEMB      173             0.0000000000
     21432       173  23SM      H13T          -14.9006256822      -35.1695440289       -9.3154271641  MEMB      173             0.0000000000
     21433       173  23SM      C14S          -13.4813161027      -34.4432957653       -7.8542453307  MEMB      173             0.0000000000
     21434       173  23SM      H14S          -13.6222470743      -33.3412781781       -7.8502274170  MEMB      173             0.0000000000
     21435       173  23SM      H14T          -12.4328318413      -34.7294079805       -7.6237204288  MEMB      173             0.0000000000
     21436       173  23SM      C15S          -14.1448478548      -35.1848274898       -6.7010811673  MEMB      173             0.0000000000
     21437       173  23SM      H15S          -13.9331799160      -36.2752775905       -6.6801997114  MEMB      173             0.0000000000
     21438       173  23SM      H15T          -15.2377037142      -35.1410778682       -6.8962048320  MEMB      173             0.0000000000
     21439       173  23SM      C16S          -13.9726539130      -34.6222195753       -5.2872266248  MEMB      173             0.0000000000
     21440       173  23SM      H16S          -14.2710449603      -33.5530632089       -5.3340027093  MEMB      173             0.0000000000
     21441       173  23SM      H16T          -12.9066950771      -34.8275135661       -5.0507791142  MEMB      173             0.0000000000
     21442       173  23SM      C17S          -14.6916255500      -35.3798312413       -4.1785207425  MEMB      173             0.0000000000
     21443       173  23SM      H17S          -15.7059718068      -35.5027528299       -4.6147689689  MEMB      173             0.0000000000
     21444       173  23SM      H17T          -14.7157495136      -34.7269354059       -3.2799292754  MEMB      173             0.0000000000
     21445       173  23SM      C18S          -13.9566941788      -36.5809828680       -3.6976292796  MEMB      173             0.0000000000
     21446       173  23SM      H18S          -14.2164141452      -36.8989246280       -2.6652622914  MEMB      173             0.0000000000
     21447       173  23SM      H18T          -12.8650553272      -36.4574034401       -3.8630784937  MEMB      173             0.0000000000
     21448       173  23SM      H18U          -14.3551714120      -37.3389713608       -4.4054352652  MEMB      173             0.0000000000
     21449       173  23SM      C1F           -10.3262166313      -39.0301936630      -19.7721671045  MEMB      173             0.0000000000
     21450       173  23SM      OF             -9.2379880716      -39.2609954893      -20.3353745093  MEMB      173             0.0000000000
     21451       173  23SM      C2F           -10.8091502840      -39.9207956367      -18.8003942603  MEMB      173             0.0000000000
     21452       173  23SM      H2F           -11.4462930480      -40.7336772270      -19.2097764655  MEMB      173             0.0000000000
     21453       173  23SM      H2G           -11.5648497746      -39.4168881674      -18.1606160623  MEMB      173             0.0000000000
     21454       173  23SM      C3F            -9.6506691286      -40.5297230642      -17.9551248488  MEMB      173             0.0000000000
     21455       173  23SM      H3F            -9.0237509873      -39.7107876531      -17.5420396571  MEMB      173             0.0000000000
     21456       173  23SM      H3G            -9.0257287218      -41.1660739413      -18.6175657671  MEMB      173             0.0000000000
     21457       173  23SM      C4F           -10.2033734473      -41.4165624449      -16.8321801210  MEMB      173             0.0000000000
     21458       173  23SM      H4F            -9.3326245429      -42.0995403054      -16.7339002130  MEMB      173             0.0000000000
     21459       173  23SM      H4G           -11.1063886642      -41.9468028786      -17.2032993374  MEMB      173             0.0000000000
     21460       173  23SM      C5F           -10.5507669473      -40.9252366719      -15.4376087543  MEMB      173             0.0000000000
     21461       173  23SM      H5F           -11.3024385297      -40.1071240679      -15.4391747017  MEMB      173             0.0000000000
     21462       173  23SM      H5G            -9.6591757770      -40.4255615259      -15.0020511689  MEMB      173             0.0000000000
     21463       173  23SM      C6F           -10.9823846372      -42.1338408615      -14.5181158366  MEMB      173             0.0000000000
     21464       173  23SM      H6F           -10.2147677871      -42.9229271559      -14.6678760104  MEMB      173             0.0000000000
     21465       173  23SM      H6G           -11.9328589906      -42.5941470868      -14.8631346480  MEMB      173             0.0000000000
     21466       173  23SM      C7F           -11.0682341461      -41.7731339013      -13.0247889981  MEMB      173             0.0000000000
     21467       173  23SM      H7F           -11.6160939731      -40.8135419651      -12.9092294619  MEMB      173             0.0000000000
     21468       173  23SM      H7G           -10.0311120825      -41.6780805351      -12.6379251046  MEMB      173             0.0000000000
     21469       173  23SM      C8F           -11.7230868472      -42.7974858513      -12.1239871390  MEMB      173             0.0000000000
     21470       173  23SM      H8F           -11.0702008222      -43.6952517636      -12.1695687084  MEMB      173             0.0000000000
     21471       173  23SM      H8G           -12.7845044846      -42.9590234463      -12.4096779004  MEMB      173             0.0000000000
     21472       173  23SM      C9F           -11.7115088734      -42.1869317231      -10.6155054281  MEMB      173             0.0000000000
     21473       173  23SM      H9F           -10.7076402394      -41.7731859202      -10.3801689635  MEMB      173             0.0000000000
     21474       173  23SM      H9G           -11.7079575675      -43.1129950402      -10.0017335058  MEMB      173             0.0000000000
     21475       173  23SM      C10F          -12.6812627170      -41.1034201697      -10.2638789798  MEMB      173             0.0000000000
     21476       173  23SM      H10F          -13.6822234683      -41.5723757102      -10.3755908534  MEMB      173             0.0000000000
     21477       173  23SM      H10G          -12.7106728362      -40.3081292774      -11.0391011785  MEMB      173             0.0000000000
     21478       173  23SM      C11F          -12.5407489698      -40.5335460607       -8.8522391049  MEMB      173             0.0000000000
     21479       173  23SM      H11F          -13.2706146970      -39.7046849644       -8.7313821657  MEMB      173             0.0000000000
     21480       173  23SM      H11G          -11.5253491006      -40.0907954059       -8.7670565134  MEMB      173             0.0000000000
     21481       173  23SM      C12F          -12.5851095174      -41.6158250475       -7.8082901368  MEMB      173             0.0000000000
     21482       173  23SM      H12F          -11.6994357335      -42.2838278726       -7.8689145921  MEMB      173             0.0000000000
     21483       173  23SM      H12G          -13.4701651559      -42.2075442346       -8.1258840631  MEMB      173             0.0000000000
     21484       173  23SM      C13F          -12.5289503885      -41.0577753324       -6.3251351034  MEMB      173             0.0000000000
     21485       173  23SM      H13F          -13.4329619489      -40.4369238138       -6.1472933594  MEMB      173             0.0000000000
     21486       173  23SM      H13G          -11.7071532203      -40.3149731630       -6.2401927718  MEMB      173             0.0000000000
     21487       173  23SM      C14F          -12.3521731938      -42.1335353077       -5.2554164856  MEMB      173             0.0000000000
     21488       173  23SM      H14F          -11.7224927351      -42.9444434749       -5.6799769485  MEMB      173             0.0000000000
     21489       173  23SM      H14G          -13.2969746049      -42.6758647787       -5.0373570229  MEMB      173             0.0000000000
     21490       173  23SM      C15F          -11.7901961860      -41.6341822070       -3.9407956848  MEMB      173             0.0000000000
     21491       173  23SM      H15F          -10.8803367826      -41.0593023134       -4.2164589854  MEMB      173             0.0000000000
     21492       173  23SM      H15G          -11.4168450712      -42.4294979073       -3.2607950518  MEMB      173             0.0000000000
     21493       173  23SM      C16F          -12.7387273659      -40.7618116808       -3.1620769636  MEMB      173             0.0000000000
     21494       173  23SM      H16F          -13.7143764306      -41.2764412574       -3.0294643938  MEMB      173             0.0000000000
     21495       173  23SM      H16G          -12.8914168907      -39.8923602332       -3.8366598423  MEMB      173             0.0000000000
     21496       173  23SM      C17F          -12.1396151253      -40.2700987805       -1.7734893775  MEMB      173             0.0000000000
     21497       173  23SM      H17F          -11.8078648220      -41.1069738491       -1.1224118524  MEMB      173             0.0000000000
     21498       173  23SM      H17G          -13.0254819846      -39.7807139598       -1.3151632107  MEMB      173             0.0000000000
     21499       173  23SM      C18F          -10.9101125077      -39.3608135472       -2.0156803550  MEMB      173             0.0000000000
     21500       173  23SM      H18F          -11.1026903544      -38.3900965225       -2.5206007636  MEMB      173             0.0000000000
     21501       173  23SM      H18G          -10.2626550583      -39.9783759149       -2.6742666218  MEMB      173             0.0000000000
     21502       173  23SM      C19F          -10.0205895996      -39.0159129014       -0.7714223684  MEMB      173             0.0000000000
     21503       173  23SM      H19F           -9.1662568897      -38.3375716715       -0.9818753302  MEMB      173             0.0000000000
     21504       173  23SM      H19G           -9.6795051264      -39.9495001329       -0.2750377520  MEMB      173             0.0000000000
     21505       173  23SM      C20F          -10.7805032986      -38.2401775613        0.2966071355  MEMB      173             0.0000000000
     21506       173  23SM      H20F          -10.1666760852      -38.3724337124        1.2131472180  MEMB      173             0.0000000000
     21507       173  23SM      H20G          -11.8130494633      -38.6369914775        0.4000845061  MEMB      173             0.0000000000
     21508       173  23SM      C21F          -10.9949287624      -36.7843781765        0.0379461293  MEMB      173             0.0000000000
     21509       173  23SM      H21F          -11.7401949530      -36.6673125033       -0.7776476564  MEMB      173             0.0000000000
     21510       173  23SM      H21G          -10.1074829925      -36.1567968433       -0.1920571786  MEMB      173             0.0000000000
     21511       173  23SM      C22F          -11.7759865840      -36.0820896904        1.1654101965  MEMB      173             0.0000000000
     21512       173  23SM      H22F          -12.7312368803      -36.6151997325        1.3593442521  MEMB      173             0.0000000000
     21513       173  23SM      H22G          -12.1906010349      -35.0937418801        0.8728616206  MEMB      173             0.0000000000
     21514       173  23SM      C23F          -10.9590252947      -35.8953192010        2.5079324749  MEMB      173             0.0000000000
     21515       173  23SM      H23F          -10.0526525369      -35.3505196746        2.1673423067  MEMB      173             0.0000000000
     21516       173  23SM      H23G          -10.7456520135      -36.7982817730        3.1190411152  MEMB      173             0.0000000000
     21517       173  23SM      H23H          -11.5207205922      -35.2610384723        3.2266183587  MEMB      173             0.0000000000
     21518       174  CHL1      C3             16.9414414963      -33.5288157032      -17.2957000000  MEMB      174             0.0000000000
     21519       174  CHL1      H3             15.8983547134      -33.3270359108      -16.9707800000  MEMB      174             0.0000000000
     21520       174  CHL1      O3             16.8180377037      -33.9079726968      -18.7043000000  MEMB      174             0.0000000000
     21521       174  CHL1      H3'            16.8493826068      -33.0405641852      -19.1144400000  MEMB      174             0.0000000000
     21522       174  CHL1      C4             17.8545138387      -32.3362979989      -17.0216000000  MEMB      174             0.0000000000
     21523       174  CHL1      H4A            18.8860814736      -32.5732017963      -17.3593100000  MEMB      174             0.0000000000
     21524       174  CHL1      H4B            17.4160745626      -31.4824728245      -17.5811400000  MEMB      174             0.0000000000
     21525       174  CHL1      C5             17.9386846208      -31.9694316152      -15.5737100000  MEMB      174             0.0000000000
     21526       174  CHL1      C6             17.6340774882      -30.6830235472      -15.1368800000  MEMB      174             0.0000000000
     21527       174  CHL1      H6             17.4518102898      -29.8598274221      -15.8433700000  MEMB      174             0.0000000000
     21528       174  CHL1      C7             17.5447271785      -30.3475364114      -13.6743500000  MEMB      174             0.0000000000
     21529       174  CHL1      H7A            18.0956033675      -29.4073028613      -13.4579700000  MEMB      174             0.0000000000
     21530       174  CHL1      H7B            16.4768392950      -30.1318726998      -13.4565700000  MEMB      174             0.0000000000
     21531       174  CHL1      C8             18.0401451437      -31.3708904465      -12.6378200000  MEMB      174             0.0000000000
     21532       174  CHL1      H8             19.1275801862      -31.2085839986      -12.4782600000  MEMB      174             0.0000000000
     21533       174  CHL1      C14            17.5291472566      -31.1698117172      -11.2449300000  MEMB      174             0.0000000000
     21534       174  CHL1      H14            16.4363775772      -31.3609459234      -11.3051800000  MEMB      174             0.0000000000
     21535       174  CHL1      C15            17.7050210742      -29.7765994732      -10.5646000000  MEMB      174             0.0000000000
     21536       174  CHL1      H15A           18.6447823720      -29.2503613833      -10.8370500000  MEMB      174             0.0000000000
     21537       174  CHL1      H15B           16.8917828221      -29.0580297805      -10.8025700000  MEMB      174             0.0000000000
     21538       174  CHL1      C16            17.7254177482      -30.0712703998       -9.0163000000  MEMB      174             0.0000000000
     21539       174  CHL1      H16A           18.7636259865      -29.9145591241       -8.6531500000  MEMB      174             0.0000000000
     21540       174  CHL1      H16B           17.1012434292      -29.4184966813       -8.3693000000  MEMB      174             0.0000000000
     21541       174  CHL1      C17            17.4774132492      -31.6310716846       -8.8743400000  MEMB      174             0.0000000000
     21542       174  CHL1      H17            16.3826534194      -31.8171485593       -8.8397400000  MEMB      174             0.0000000000
     21543       174  CHL1      C13            17.9713443881      -32.1838192737      -10.2192500000  MEMB      174             0.0000000000
     21544       174  CHL1      C18            19.4997505040      -32.2086371774      -10.1093000000  MEMB      174             0.0000000000
     21545       174  CHL1      H18A           19.8252038621      -32.9073401808       -9.3091600000  MEMB      174             0.0000000000
     21546       174  CHL1      H18B           20.0208464708      -32.6385263788      -10.9913300000  MEMB      174             0.0000000000
     21547       174  CHL1      H18C           19.8470556761      -31.1986366808       -9.8033700000  MEMB      174             0.0000000000
     21548       174  CHL1      C12            17.5284630582      -33.5601318916      -10.5796200000  MEMB      174             0.0000000000
     21549       174  CHL1      H12A           17.9705502271      -34.2529338547       -9.8320100000  MEMB      174             0.0000000000
     21550       174  CHL1      H12B           16.4260851931      -33.6120997866      -10.4517000000  MEMB      174             0.0000000000
     21551       174  CHL1      C11            17.9515518217      -33.9347668679      -12.0002900000  MEMB      174             0.0000000000
     21552       174  CHL1      H11A           19.0569419937      -34.0450387945      -11.9839500000  MEMB      174             0.0000000000
     21553       174  CHL1      H11B           17.5657911777      -34.9228358714      -12.3307800000  MEMB      174             0.0000000000
     21554       174  CHL1      C9             17.7476279169      -32.7987510857      -13.1289700000  MEMB      174             0.0000000000
     21555       174  CHL1      H9             16.6422477943      -32.6928137178      -13.1640000000  MEMB      174             0.0000000000
     21556       174  CHL1      C10            18.1652610226      -33.1813696951      -14.5927300000  MEMB      174             0.0000000000
     21557       174  CHL1      C19            19.6503193256      -33.4004232482      -14.6122900000  MEMB      174             0.0000000000
     21558       174  CHL1      H19A           20.1306951869      -32.4099871455      -14.4619400000  MEMB      174             0.0000000000
     21559       174  CHL1      H19B           19.9341774489      -34.1451102200      -13.8382200000  MEMB      174             0.0000000000
     21560       174  CHL1      H19C           19.9547483798      -33.7964749065      -15.6046600000  MEMB      174             0.0000000000
     21561       174  CHL1      C1             17.4724540162      -34.5377098566      -15.0524700000  MEMB      174             0.0000000000
     21562       174  CHL1      H1A            18.0011858282      -35.3870169724      -14.5693100000  MEMB      174             0.0000000000
     21563       174  CHL1      H1B            16.4055540715      -34.4209449724      -14.7653800000  MEMB      174             0.0000000000
     21564       174  CHL1      C2             17.5481664687      -34.7241846490      -16.5931900000  MEMB      174             0.0000000000
     21565       174  CHL1      H2A            17.0239535153      -35.6620956212      -16.8757500000  MEMB      174             0.0000000000
     21566       174  CHL1      H2B            18.5838269535      -34.9358231683      -16.9351500000  MEMB      174             0.0000000000
     21567       174  CHL1      C20            17.9801126152      -32.2960736736       -7.4962800000  MEMB      174             0.0000000000
     21568       174  CHL1      H20            19.0881715457      -32.2190806493       -7.4720300000  MEMB      174             0.0000000000
     21569       174  CHL1      C21            17.5443613727      -33.7270044346       -7.4793100000  MEMB      174             0.0000000000
     21570       174  CHL1      H21A           17.4011336519      -33.9873708159       -6.4087900000  MEMB      174             0.0000000000
     21571       174  CHL1      H21B           18.3135493292      -34.4844527752       -7.7419000000  MEMB      174             0.0000000000
     21572       174  CHL1      H21C           16.5951669058      -33.9129527721       -8.0259200000  MEMB      174             0.0000000000
     21573       174  CHL1      C22            17.5017606334      -31.4835378007       -6.2600300000  MEMB      174             0.0000000000
     21574       174  CHL1      H22A           17.2859889720      -30.4116950944       -6.4573300000  MEMB      174             0.0000000000
     21575       174  CHL1      H22B           16.5304589083      -31.9559288550       -5.9997600000  MEMB      174             0.0000000000
     21576       174  CHL1      C23            18.4329502920      -31.6622962425       -5.0960800000  MEMB      174             0.0000000000
     21577       174  CHL1      H23A           18.6632487520      -32.7434390683       -4.9846800000  MEMB      174             0.0000000000
     21578       174  CHL1      H23B           19.2893230110      -31.0494774145       -5.4501900000  MEMB      174             0.0000000000
     21579       174  CHL1      C24            17.9445381664      -31.2945027617       -3.7123700000  MEMB      174             0.0000000000
     21580       174  CHL1      H24A           18.6851522074      -31.5473250709       -2.9237700000  MEMB      174             0.0000000000
     21581       174  CHL1      H24B           17.8154428074      -30.2089995761       -3.5140300000  MEMB      174             0.0000000000
     21582       174  CHL1      C25            16.5810384670      -31.9018030918       -3.2120000000  MEMB      174             0.0000000000
     21583       174  CHL1      H25            15.7825021242      -31.6545714757       -3.9438000000  MEMB      174             0.0000000000
     21584       174  CHL1      C26            16.4443199783      -33.4679572349       -3.0544500000  MEMB      174             0.0000000000
     21585       174  CHL1      H26A           17.2693189259      -33.9406751660       -2.4797900000  MEMB      174             0.0000000000
     21586       174  CHL1      H26B           15.4974582038      -33.8362132570       -2.6048200000  MEMB      174             0.0000000000
     21587       174  CHL1      H26C           16.4900349608      -33.9164767798       -4.0698600000  MEMB      174             0.0000000000
     21588       174  CHL1      C27            16.1696612785      -31.2762099965       -1.9139100000  MEMB      174             0.0000000000
     21589       174  CHL1      H27A           15.1959475113      -31.5571141612       -1.4586000000  MEMB      174             0.0000000000
     21590       174  CHL1      H27B           16.9215159803      -31.4050259186       -1.1061800000  MEMB      174             0.0000000000
     21591       174  CHL1      H27C           16.1563795062      -30.1659978219       -1.9535900000  MEMB      174             0.0000000000
     21592       175  DOPC      N             -16.4745193600       32.9285409120      -17.3960597069  MEMB      175             0.0000000000
     21593       175  DOPC      C12           -15.1122114462       33.3199543750      -18.0498399860  MEMB      175             0.0000000000
     21594       175  DOPC      H12A          -14.3926892921       32.6500199871      -17.6027653375  MEMB      175             0.0000000000
     21595       175  DOPC      H12B          -14.9237496122       34.2678059771      -17.5676996023  MEMB      175             0.0000000000
     21596       175  DOPC      C13           -16.6464170832       31.4942838158      -17.8271867680  MEMB      175             0.0000000000
     21597       175  DOPC      H13A          -17.5485344192       31.0667514841      -17.4151182880  MEMB      175             0.0000000000
     21598       175  DOPC      H13B          -16.9464540071       31.4212332996      -18.8620980249  MEMB      175             0.0000000000
     21599       175  DOPC      H13C          -15.7439638757       30.9269302140      -17.6537268866  MEMB      175             0.0000000000
     21600       175  DOPC      C14           -17.5478683651       33.7934361234      -17.9546441404  MEMB      175             0.0000000000
     21601       175  DOPC      H14A          -17.2846319266       34.8216932070      -17.7551597950  MEMB      175             0.0000000000
     21602       175  DOPC      H14B          -17.5297965622       33.6393034464      -19.0234361816  MEMB      175             0.0000000000
     21603       175  DOPC      H14C          -18.4962986364       33.4444502093      -17.5737387495  MEMB      175             0.0000000000
     21604       175  DOPC      C15           -16.4008811281       33.1333678490      -15.9101972102  MEMB      175             0.0000000000
     21605       175  DOPC      H15A          -15.6528657858       32.5263216548      -15.4219680499  MEMB      175             0.0000000000
     21606       175  DOPC      H15B          -17.3756942840       32.9663745061      -15.4763163647  MEMB      175             0.0000000000
     21607       175  DOPC      H15C          -16.2147819814       34.1880195385      -15.7706370699  MEMB      175             0.0000000000
     21608       175  DOPC      C11           -14.9816552384       33.3645755864      -19.5529662238  MEMB      175             0.0000000000
     21609       175  DOPC      H11A          -13.9526094452       33.6572095101      -19.8525512289  MEMB      175             0.0000000000
     21610       175  DOPC      H11B          -15.0280083734       32.3457203886      -19.9935413571  MEMB      175             0.0000000000
     21611       175  DOPC      P             -15.7269555029       35.7373731301      -20.5417422319  MEMB      175             0.0000000000
     21612       175  DOPC      O13           -16.7576111395       36.1857395783      -21.4592905694  MEMB      175             0.0000000000
     21613       175  DOPC      O14           -14.3237823140       35.8846819165      -20.9821209821  MEMB      175             0.0000000000
     21614       175  DOPC      O12           -15.9286703293       34.2057763040      -20.2125674648  MEMB      175             0.0000000000
     21615       175  DOPC      O11           -15.9740203907       36.3645187052      -19.1133847144  MEMB      175             0.0000000000
     21616       175  DOPC      C1            -16.3830784309       37.7170443815      -18.9608133203  MEMB      175             0.0000000000
     21617       175  DOPC      HA            -17.4130210369       37.8952734541      -19.3373414690  MEMB      175             0.0000000000
     21618       175  DOPC      HB            -15.7191294717       38.4337322076      -19.4898231108  MEMB      175             0.0000000000
     21619       175  DOPC      C2            -16.7228699428       38.0322799611      -17.4374165804  MEMB      175             0.0000000000
     21620       175  DOPC      HS            -16.3528254163       39.0647192371      -17.2600546894  MEMB      175             0.0000000000
     21621       175  DOPC      O21           -16.0239498292       37.1278753358      -16.5357732236  MEMB      175             0.0000000000
     21622       175  DOPC      C21           -14.7323873299       37.3331766995      -16.3039621860  MEMB      175             0.0000000000
     21623       175  DOPC      O22           -13.9852940820       38.0379932246      -16.9766807138  MEMB      175             0.0000000000
     21624       175  DOPC      C22           -14.2332508945       36.7067453033      -14.9612259654  MEMB      175             0.0000000000
     21625       175  DOPC      H2R           -14.6721920615       35.6862406912      -14.9761238110  MEMB      175             0.0000000000
     21626       175  DOPC      H2S           -14.8072173643       37.1299320797      -14.1092892360  MEMB      175             0.0000000000
     21627       175  DOPC      C3            -18.2329950068       37.9983364358      -17.0705783901  MEMB      175             0.0000000000
     21628       175  DOPC      HX            -18.5657707839       37.1310164785      -17.6799528839  MEMB      175             0.0000000000
     21629       175  DOPC      HY            -18.8872452950       38.8139182674      -17.4462162650  MEMB      175             0.0000000000
     21630       175  DOPC      O31           -18.4918435305       37.6633248208      -15.6899240827  MEMB      175             0.0000000000
     21631       175  DOPC      C31           -17.9556082209       38.3356730029      -14.6865356327  MEMB      175             0.0000000000
     21632       175  DOPC      O32           -17.3492598231       39.4224863980      -14.8273197137  MEMB      175             0.0000000000
     21633       175  DOPC      C32           -18.1758033342       37.5590738015      -13.4498945996  MEMB      175             0.0000000000
     21634       175  DOPC      H2X           -19.1897225493       37.1073321065      -13.4027977155  MEMB      175             0.0000000000
     21635       175  DOPC      H2Y           -17.4068332329       36.7600895243      -13.3818491398  MEMB      175             0.0000000000
     21636       175  DOPC      C23           -12.6799812790       36.7390838175      -14.8628338438  MEMB      175             0.0000000000
     21637       175  DOPC      H3R           -12.2908885431       37.7794615252      -14.8395423762  MEMB      175             0.0000000000
     21638       175  DOPC      H3S           -12.2805514832       35.9559071799      -15.5421062329  MEMB      175             0.0000000000
     21639       175  DOPC      C24           -12.1988778773       36.0610228533      -13.5394218332  MEMB      175             0.0000000000
     21640       175  DOPC      H4R           -11.1910100885       35.5973935328      -13.5991830190  MEMB      175             0.0000000000
     21641       175  DOPC      H4S           -12.9176328698       35.2381714306      -13.3378594642  MEMB      175             0.0000000000
     21642       175  DOPC      C25           -12.2965166417       36.9800769425      -12.2639708746  MEMB      175             0.0000000000
     21643       175  DOPC      H5R           -13.1505394195       37.6791136983      -12.3916956256  MEMB      175             0.0000000000
     21644       175  DOPC      H5S           -11.3823455561       37.6106270309      -12.2958890395  MEMB      175             0.0000000000
     21645       175  DOPC      C26           -12.2054439340       36.2261831377      -10.8959712571  MEMB      175             0.0000000000
     21646       175  DOPC      H6R           -11.4061627509       35.4648580588      -11.0218859761  MEMB      175             0.0000000000
     21647       175  DOPC      H6S           -13.0933873129       35.5701757498      -10.7713463953  MEMB      175             0.0000000000
     21648       175  DOPC      C27           -12.0698207754       36.9471048994       -9.6090207249  MEMB      175             0.0000000000
     21649       175  DOPC      H7R           -11.1577607329       37.5814815951       -9.6147430171  MEMB      175             0.0000000000
     21650       175  DOPC      H7S           -12.0050074737       36.2294074134       -8.7634255270  MEMB      175             0.0000000000
     21651       175  DOPC      C28           -13.2887607239       37.8632869253       -9.1748520263  MEMB      175             0.0000000000
     21652       175  DOPC      H8R           -13.3597102189       38.7236821650       -9.8741428100  MEMB      175             0.0000000000
     21653       175  DOPC      H8S           -13.0063997160       38.4074076543       -8.2482860361  MEMB      175             0.0000000000
     21654       175  DOPC      C29           -14.7096831744       37.3372844913       -9.2322207685  MEMB      175             0.0000000000
     21655       175  DOPC      H9R           -15.1874322759       37.6561081890      -10.1703609723  MEMB      175             0.0000000000
     21656       175  DOPC      C210          -15.3924552958       36.5614117625       -8.3118154920  MEMB      175             0.0000000000
     21657       175  DOPC      H10R          -16.4177848402       36.2208836466       -8.5185513154  MEMB      175             0.0000000000
     21658       175  DOPC      C211          -14.8225644402       36.0694447091       -6.9505874374  MEMB      175             0.0000000000
     21659       175  DOPC      H11R          -13.7248396820       36.2009227030       -6.8408828349  MEMB      175             0.0000000000
     21660       175  DOPC      H11S          -15.1863547023       35.0468511157       -6.7133534235  MEMB      175             0.0000000000
     21661       175  DOPC      C212          -15.4281571726       36.6815973114       -5.6712103715  MEMB      175             0.0000000000
     21662       175  DOPC      H12R          -15.3220294724       37.7871285875       -5.7005085763  MEMB      175             0.0000000000
     21663       175  DOPC      H12S          -14.9237681888       36.1231382004       -4.8538754857  MEMB      175             0.0000000000
     21664       175  DOPC      C213          -16.8857573229       36.5620772364       -5.4459154791  MEMB      175             0.0000000000
     21665       175  DOPC      H13R          -17.1813012562       35.5184187186       -5.2055994567  MEMB      175             0.0000000000
     21666       175  DOPC      H13S          -17.5515451644       36.9005000340       -6.2684220977  MEMB      175             0.0000000000
     21667       175  DOPC      C214          -17.2759280547       37.2886266271       -4.1540813778  MEMB      175             0.0000000000
     21668       175  DOPC      H14R          -17.0544037440       38.3760291015       -4.2070328267  MEMB      175             0.0000000000
     21669       175  DOPC      H14S          -16.6918282666       36.9330834513       -3.2784452997  MEMB      175             0.0000000000
     21670       175  DOPC      C215          -18.7662784446       37.1619821235       -3.8426656581  MEMB      175             0.0000000000
     21671       175  DOPC      H15R          -19.0156078704       36.0838366377       -3.9414494673  MEMB      175             0.0000000000
     21672       175  DOPC      H15S          -19.2732697705       37.8357786463       -4.5660462702  MEMB      175             0.0000000000
     21673       175  DOPC      C216          -19.1745922858       37.5682317350       -2.3920199588  MEMB      175             0.0000000000
     21674       175  DOPC      H16R          -18.7120913471       38.5603734726       -2.2021015780  MEMB      175             0.0000000000
     21675       175  DOPC      H16S          -18.7489300307       36.8041318544       -1.7069769960  MEMB      175             0.0000000000
     21676       175  DOPC      C217          -20.7048003905       37.7498390515       -2.1566746219  MEMB      175             0.0000000000
     21677       175  DOPC      H17R          -21.1256191964       38.1773937553       -3.0917836504  MEMB      175             0.0000000000
     21678       175  DOPC      H17S          -20.9651433446       38.3367261675       -1.2499739861  MEMB      175             0.0000000000
     21679       175  DOPC      C218          -21.2503951832       36.3553562580       -1.9636897495  MEMB      175             0.0000000000
     21680       175  DOPC      H18R          -20.6970637958       35.7743169364       -1.1952237958  MEMB      175             0.0000000000
     21681       175  DOPC      H18S          -21.2198204795       35.7694879925       -2.9071644077  MEMB      175             0.0000000000
     21682       175  DOPC      H18T          -22.2722008081       36.4014058772       -1.5299674419  MEMB      175             0.0000000000
     21683       175  DOPC      C33           -17.6774863553       38.3565379424      -12.2551933515  MEMB      175             0.0000000000
     21684       175  DOPC      H3X           -18.0895738490       39.3863409181      -12.1918640972  MEMB      175             0.0000000000
     21685       175  DOPC      H3Y           -16.5727472695       38.4479875455      -12.3294182090  MEMB      175             0.0000000000
     21686       175  DOPC      C34           -17.9477868218       37.7435510179      -10.8852303500  MEMB      175             0.0000000000
     21687       175  DOPC      H4X           -17.7134071495       38.3862780414      -10.0098501261  MEMB      175             0.0000000000
     21688       175  DOPC      H4Y           -17.4105837726       36.7757518990      -10.7898422847  MEMB      175             0.0000000000
     21689       175  DOPC      C35           -19.4529798130       37.5958145578      -10.6929301125  MEMB      175             0.0000000000
     21690       175  DOPC      H5X           -20.1480186970       37.0375333670      -11.3559261465  MEMB      175             0.0000000000
     21691       175  DOPC      H5Y           -19.9253859741       38.5992126001      -10.7588515324  MEMB      175             0.0000000000
     21692       175  DOPC      C36           -19.6835306804       37.1206690406       -9.2004917778  MEMB      175             0.0000000000
     21693       175  DOPC      H6X           -18.9816768563       37.6995538146       -8.5628286021  MEMB      175             0.0000000000
     21694       175  DOPC      H6Y           -20.7548548322       37.3160014325       -8.9804235494  MEMB      175             0.0000000000
     21695       175  DOPC      C37           -19.4772613392       35.6619696926       -8.9655254932  MEMB      175             0.0000000000
     21696       175  DOPC      H7X           -20.0699757083       35.0488591328       -9.6776393700  MEMB      175             0.0000000000
     21697       175  DOPC      H7Y           -18.4812424998       35.3090596324       -9.3086305408  MEMB      175             0.0000000000
     21698       175  DOPC      C38           -19.7923797461       35.2558087440       -7.5091846166  MEMB      175             0.0000000000
     21699       175  DOPC      H8X           -19.2266209131       35.9471205803       -6.8486350570  MEMB      175             0.0000000000
     21700       175  DOPC      H8Y           -19.3701429369       34.2309368472       -7.4338537646  MEMB      175             0.0000000000
     21701       175  DOPC      C39           -21.2755715814       35.3428391034       -7.1526102843  MEMB      175             0.0000000000
     21702       175  DOPC      H9X           -21.7726956873       36.2205873471       -7.5912738769  MEMB      175             0.0000000000
     21703       175  DOPC      C310          -22.0717581524       34.3618651518       -6.6107261955  MEMB      175             0.0000000000
     21704       175  DOPC      H10X          -23.1619427547       34.5084790770       -6.6095047384  MEMB      175             0.0000000000
     21705       175  DOPC      C311          -21.6381627065       32.9760722965       -6.2013966495  MEMB      175             0.0000000000
     21706       175  DOPC      H11X          -20.7136397676       32.6225230091       -6.7059567177  MEMB      175             0.0000000000
     21707       175  DOPC      H11Y          -22.4962171403       32.3157318443       -6.4504218889  MEMB      175             0.0000000000
     21708       175  DOPC      C312          -21.0870703719       32.7773503618       -4.7446390427  MEMB      175             0.0000000000
     21709       175  DOPC      H12X          -21.1231533764       31.6859907110       -4.5398143194  MEMB      175             0.0000000000
     21710       175  DOPC      H12Y          -21.7499710310       33.2669491847       -3.9995375521  MEMB      175             0.0000000000
     21711       175  DOPC      C313          -19.5963754531       33.3191805826       -4.5639056705  MEMB      175             0.0000000000
     21712       175  DOPC      H13X          -18.9883486901       32.8611653508       -5.3731321872  MEMB      175             0.0000000000
     21713       175  DOPC      H13Y          -19.5665791469       34.4097906688       -4.7736738871  MEMB      175             0.0000000000
     21714       175  DOPC      C314          -19.0777311435       32.9647239726       -3.1990569419  MEMB      175             0.0000000000
     21715       175  DOPC      H14X          -19.7768565750       33.5662465916       -2.5796100053  MEMB      175             0.0000000000
     21716       175  DOPC      H14Y          -19.0947402546       31.9092443415       -2.8526548163  MEMB      175             0.0000000000
     21717       175  DOPC      C315          -17.6212562825       33.3786030266       -2.8545116475  MEMB      175             0.0000000000
     21718       175  DOPC      H15X          -17.5800900486       34.4472640747       -3.1554939474  MEMB      175             0.0000000000
     21719       175  DOPC      H15Y          -16.9469119427       32.8320077758       -3.5479194661  MEMB      175             0.0000000000
     21720       175  DOPC      C316          -17.1796793682       33.2008363175       -1.3877429410  MEMB      175             0.0000000000
     21721       175  DOPC      H16X          -17.8147726780       33.9362366569       -0.8490730407  MEMB      175             0.0000000000
     21722       175  DOPC      H16Y          -17.2683846639       32.1850063888       -0.9466742624  MEMB      175             0.0000000000
     21723       175  DOPC      C317          -15.7378220778       33.7171995838       -1.2734777777  MEMB      175             0.0000000000
     21724       175  DOPC      H17X          -15.0355470503       33.3455478198       -2.0500121925  MEMB      175             0.0000000000
     21725       175  DOPC      H17Y          -15.8590058100       34.7940434405       -1.5185134884  MEMB      175             0.0000000000
     21726       175  DOPC      C318          -15.1354977364       33.3991994942        0.1020239262  MEMB      175             0.0000000000
     21727       175  DOPC      H18X          -14.8123430298       32.3365617212        0.1283665626  MEMB      175             0.0000000000
     21728       175  DOPC      H18Y          -14.2181790396       34.0210901751        0.1801229097  MEMB      175             0.0000000000
     21729       175  DOPC      H18Z          -15.8370833789       33.4536028885        0.9617550181  MEMB      175             0.0000000000
     21730       176  DOPE      N             -35.5720450691       -2.2637716940      -20.1570971741  MEMB      176             0.0000000000
     21731       176  DOPE      HN1           -34.6597697723       -2.5652715845      -20.5551569077  MEMB      176             0.0000000000
     21732       176  DOPE      HN2           -36.1402451240       -3.1331192485      -20.1024756864  MEMB      176             0.0000000000
     21733       176  DOPE      HN3           -35.9977206114       -1.5462900478      -20.7780805844  MEMB      176             0.0000000000
     21734       176  DOPE      C12           -35.4293672372       -1.6993816740      -18.8001231465  MEMB      176             0.0000000000
     21735       176  DOPE      H12A          -34.6458583222       -0.9126783265      -18.8392734913  MEMB      176             0.0000000000
     21736       176  DOPE      H12B          -35.1793331521       -2.5578482930      -18.1406998756  MEMB      176             0.0000000000
     21737       176  DOPE      C11           -36.8201883186       -1.1555184509      -18.2960032494  MEMB      176             0.0000000000
     21738       176  DOPE      H11A          -36.7292101755       -0.9184475294      -17.2144111772  MEMB      176             0.0000000000
     21739       176  DOPE      H11B          -37.5374197871       -1.9946201386      -18.4217349959  MEMB      176             0.0000000000
     21740       176  DOPE      P             -38.8169920398        0.2243771967      -19.0324713461  MEMB      176             0.0000000000
     21741       176  DOPE      O13           -39.6710277617       -1.0127462595      -18.9427880930  MEMB      176             0.0000000000
     21742       176  DOPE      O14           -39.0568908165        1.2155607606      -20.0745156185  MEMB      176             0.0000000000
     21743       176  DOPE      O11           -38.9508541825        1.0670899152      -17.6869933676  MEMB      176             0.0000000000
     21744       176  DOPE      O12           -37.2783817418       -0.0724261389      -19.0100080019  MEMB      176             0.0000000000
     21745       176  DOPE      C1            -38.4208373828        2.3704307336      -17.5264588252  MEMB      176             0.0000000000
     21746       176  DOPE      HA            -39.3428793038        2.9829610764      -17.6211484443  MEMB      176             0.0000000000
     21747       176  DOPE      HB            -37.8084353310        2.7904050296      -18.3528401811  MEMB      176             0.0000000000
     21748       176  DOPE      C2            -37.8291386073        2.5978896161      -16.2244121244  MEMB      176             0.0000000000
     21749       176  DOPE      HS            -37.2912662547        3.5694166285      -16.2583222295  MEMB      176             0.0000000000
     21750       176  DOPE      O21           -36.9321937941        1.6115707488      -15.8723311547  MEMB      176             0.0000000000
     21751       176  DOPE      C21           -35.7738729870        1.8604752272      -15.2597955496  MEMB      176             0.0000000000
     21752       176  DOPE      O22           -35.3581823851        2.9071916999      -14.9029344077  MEMB      176             0.0000000000
     21753       176  DOPE      C22           -34.9973913711        0.4589300166      -15.1611752594  MEMB      176             0.0000000000
     21754       176  DOPE      H2R           -35.1643634245        0.0020493836      -16.1600254174  MEMB      176             0.0000000000
     21755       176  DOPE      H2S           -35.4378494401       -0.2040125252      -14.3860467768  MEMB      176             0.0000000000
     21756       176  DOPE      C3            -38.9471000988        2.6540346433      -15.0980158108  MEMB      176             0.0000000000
     21757       176  DOPE      HX            -39.4570678858        3.6332187609      -15.2223227641  MEMB      176             0.0000000000
     21758       176  DOPE      HY            -38.3762575722        2.7508317928      -14.1498123443  MEMB      176             0.0000000000
     21759       176  DOPE      O31           -39.8442531489        1.4888180482      -15.1153530144  MEMB      176             0.0000000000
     21760       176  DOPE      C31           -39.3647424206        0.4857919940      -14.3562145980  MEMB      176             0.0000000000
     21761       176  DOPE      O32           -38.4996692717        0.4983507586      -13.4948122806  MEMB      176             0.0000000000
     21762       176  DOPE      C32           -39.9226417330       -0.8732019150      -14.8751492260  MEMB      176             0.0000000000
     21763       176  DOPE      H2X           -41.0266112081       -0.8202268719      -14.7621630238  MEMB      176             0.0000000000
     21764       176  DOPE      H2Y           -39.6783365760       -1.0504350698      -15.9443658913  MEMB      176             0.0000000000
     21765       176  DOPE      C23           -33.4674449088        0.5795139599      -14.8877260037  MEMB      176             0.0000000000
     21766       176  DOPE      H3R           -32.9494811658        1.2376028767      -15.6177626139  MEMB      176             0.0000000000
     21767       176  DOPE      H3S           -33.0307115281       -0.4405099636      -14.9437247210  MEMB      176             0.0000000000
     21768       176  DOPE      C24           -33.1520235762        1.0520188207      -13.4571607515  MEMB      176             0.0000000000
     21769       176  DOPE      H4R           -33.3607246012        2.1367542475      -13.3383589383  MEMB      176             0.0000000000
     21770       176  DOPE      H4S           -32.0597535693        0.8528720434      -13.4170655029  MEMB      176             0.0000000000
     21771       176  DOPE      C25           -33.8313016217        0.3809902512      -12.1947582491  MEMB      176             0.0000000000
     21772       176  DOPE      H5R           -33.0936027633        0.3034135656      -11.3676522751  MEMB      176             0.0000000000
     21773       176  DOPE      H5S           -33.9092375828       -0.6596647889      -12.5759192355  MEMB      176             0.0000000000
     21774       176  DOPE      C26           -35.1235486443        0.9398586719      -11.6564169062  MEMB      176             0.0000000000
     21775       176  DOPE      H6R           -35.3326508868        0.2008595089      -10.8536228548  MEMB      176             0.0000000000
     21776       176  DOPE      H6S           -35.9439846884        0.9044145122      -12.4047146204  MEMB      176             0.0000000000
     21777       176  DOPE      C27           -35.0610023589        2.3676259781      -10.9913471771  MEMB      176             0.0000000000
     21778       176  DOPE      H7R           -36.0693321536        2.8214675571      -10.8835509665  MEMB      176             0.0000000000
     21779       176  DOPE      H7S           -34.3118724008        2.9762466651      -11.5415352029  MEMB      176             0.0000000000
     21780       176  DOPE      C28           -34.4563936442        2.2255432456       -9.6021951065  MEMB      176             0.0000000000
     21781       176  DOPE      H8R           -33.5311074419        1.6119432673       -9.6429575282  MEMB      176             0.0000000000
     21782       176  DOPE      H8S           -35.0319297278        1.6598978621       -8.8385690495  MEMB      176             0.0000000000
     21783       176  DOPE      C29           -33.8730160511        3.6124642780       -9.1818630347  MEMB      176             0.0000000000
     21784       176  DOPE      H9R           -33.0538261965        3.9922305236       -9.8101183426  MEMB      176             0.0000000000
     21785       176  DOPE      C210          -34.3253183505        4.2938761593       -8.0915650239  MEMB      176             0.0000000000
     21786       176  DOPE      H10R          -34.0339173170        5.3281735922       -7.8563740544  MEMB      176             0.0000000000
     21787       176  DOPE      C211          -35.4248858951        3.8574072015       -7.1329507654  MEMB      176             0.0000000000
     21788       176  DOPE      H11R          -36.0156680592        3.0751222893       -7.6557584908  MEMB      176             0.0000000000
     21789       176  DOPE      H11S          -36.0519706598        4.7622516386       -6.9834786022  MEMB      176             0.0000000000
     21790       176  DOPE      C212          -34.8901213952        3.4486266327       -5.7530061211  MEMB      176             0.0000000000
     21791       176  DOPE      H12R          -34.1348976211        4.1505374667       -5.3391473122  MEMB      176             0.0000000000
     21792       176  DOPE      H12S          -34.3594405466        2.4968952743       -5.9695854897  MEMB      176             0.0000000000
     21793       176  DOPE      C213          -36.1621030649        3.1836842997       -4.9888189591  MEMB      176             0.0000000000
     21794       176  DOPE      H13R          -36.5110835996        2.1851872788       -5.3287267835  MEMB      176             0.0000000000
     21795       176  DOPE      H13S          -37.0052143812        3.8668091995       -5.2271986116  MEMB      176             0.0000000000
     21796       176  DOPE      C214          -35.9971609960        2.9399521664       -3.4931302597  MEMB      176             0.0000000000
     21797       176  DOPE      H14R          -35.1766831801        2.1960031405       -3.4055111885  MEMB      176             0.0000000000
     21798       176  DOPE      H14S          -36.9533416803        2.4108845269       -3.2928135370  MEMB      176             0.0000000000
     21799       176  DOPE      C215          -35.4752920056        4.0902709994       -2.7275281096  MEMB      176             0.0000000000
     21800       176  DOPE      H15R          -35.8985945376        5.0364057060       -3.1274853243  MEMB      176             0.0000000000
     21801       176  DOPE      H15S          -34.3644389534        4.0885032356       -2.7455282763  MEMB      176             0.0000000000
     21802       176  DOPE      C216          -35.9561610693        4.0824048911       -1.2203344183  MEMB      176             0.0000000000
     21803       176  DOPE      H16R          -36.9923813392        4.4688448137       -1.1143518655  MEMB      176             0.0000000000
     21804       176  DOPE      H16S          -35.2591410980        4.7983403175       -0.7346168269  MEMB      176             0.0000000000
     21805       176  DOPE      C217          -35.8407747505        2.7980517339       -0.3863818923  MEMB      176             0.0000000000
     21806       176  DOPE      H17R          -36.3246555914        1.9155196420       -0.8568259327  MEMB      176             0.0000000000
     21807       176  DOPE      H17S          -36.3399124304        3.0089870348        0.5835091926  MEMB      176             0.0000000000
     21808       176  DOPE      C218          -34.4006846414        2.4681640141        0.0210368412  MEMB      176             0.0000000000
     21809       176  DOPE      H18R          -33.8837051979        2.1449506716       -0.9077191174  MEMB      176             0.0000000000
     21810       176  DOPE      H18S          -34.3090596430        1.6898937676        0.8085779339  MEMB      176             0.0000000000
     21811       176  DOPE      H18T          -33.7925103921        3.2594166507        0.5092610686  MEMB      176             0.0000000000
     21812       176  DOPE      C33           -39.5617782700       -2.2059678074      -14.0199477605  MEMB      176             0.0000000000
     21813       176  DOPE      H3X           -40.2011631148       -3.0672540936      -14.3092463817  MEMB      176             0.0000000000
     21814       176  DOPE      H3Y           -39.6763809867       -1.9966282705      -12.9348833778  MEMB      176             0.0000000000
     21815       176  DOPE      C34           -38.0695056655       -2.6692375653      -14.2293945006  MEMB      176             0.0000000000
     21816       176  DOPE      H4X           -37.7128757545       -2.8948954217      -15.2571174322  MEMB      176             0.0000000000
     21817       176  DOPE      H4Y           -37.3445944606       -1.8984500418      -13.8907036917  MEMB      176             0.0000000000
     21818       176  DOPE      C35           -37.8012697004       -4.0010146602      -13.4619994379  MEMB      176             0.0000000000
     21819       176  DOPE      H5X           -36.7634180487       -4.2504612341      -13.7701574321  MEMB      176             0.0000000000
     21820       176  DOPE      H5Y           -38.5762580635       -4.7623774694      -13.6944670555  MEMB      176             0.0000000000
     21821       176  DOPE      C36           -37.8105108206       -3.7992239335      -11.9699131705  MEMB      176             0.0000000000
     21822       176  DOPE      H6X           -37.5543188566       -4.7652296482      -11.4846094351  MEMB      176             0.0000000000
     21823       176  DOPE      H6Y           -38.8414118307       -3.6379072686      -11.5884147448  MEMB      176             0.0000000000
     21824       176  DOPE      C37           -36.7451475607       -2.8279789839      -11.2913829824  MEMB      176             0.0000000000
     21825       176  DOPE      H7X           -35.7882204206       -2.9891292603      -11.8323467160  MEMB      176             0.0000000000
     21826       176  DOPE      H7Y           -37.1437046502       -1.8010909034      -11.4362068662  MEMB      176             0.0000000000
     21827       176  DOPE      C38           -36.5103673738       -3.1072092025       -9.8437037692  MEMB      176             0.0000000000
     21828       176  DOPE      H8X           -35.6462084397       -2.4738463798       -9.5497619384  MEMB      176             0.0000000000
     21829       176  DOPE      H8Y           -36.1968450037       -4.1707328447       -9.7734055682  MEMB      176             0.0000000000
     21830       176  DOPE      C39           -37.7236376014       -3.0318559437       -8.9849406624  MEMB      176             0.0000000000
     21831       176  DOPE      H9X           -38.3970636413       -3.8958218799       -8.8846396935  MEMB      176             0.0000000000
     21832       176  DOPE      C310          -38.0590347579       -1.8798965483       -8.2419857018  MEMB      176             0.0000000000
     21833       176  DOPE      H10X          -38.8307305038       -1.9368641717       -7.4601671551  MEMB      176             0.0000000000
     21834       176  DOPE      C311          -37.2585754382       -0.5731963100       -8.2442948655  MEMB      176             0.0000000000
     21835       176  DOPE      H11X          -36.9409700812       -0.1604166183       -9.2256515367  MEMB      176             0.0000000000
     21836       176  DOPE      H11Y          -37.9404112574        0.2697963956       -8.0018401839  MEMB      176             0.0000000000
     21837       176  DOPE      C312          -36.1337688116       -0.4402443424       -7.1553564747  MEMB      176             0.0000000000
     21838       176  DOPE      H12X          -35.8237356161        0.6263954188       -7.1772649976  MEMB      176             0.0000000000
     21839       176  DOPE      H12Y          -35.2599479184       -0.9610360048       -7.6020490925  MEMB      176             0.0000000000
     21840       176  DOPE      C313          -36.4869546595       -1.0316010467       -5.7899881754  MEMB      176             0.0000000000
     21841       176  DOPE      H13X          -37.4285232932       -0.5611465253       -5.4344012044  MEMB      176             0.0000000000
     21842       176  DOPE      H13Y          -36.7612995924       -2.1057112939       -5.8630847777  MEMB      176             0.0000000000
     21843       176  DOPE      C314          -35.4697819404       -0.8154219105       -4.6873889576  MEMB      176             0.0000000000
     21844       176  DOPE      H14X          -35.1593499456        0.2385030360       -4.8522987664  MEMB      176             0.0000000000
     21845       176  DOPE      H14Y          -34.6683677318       -1.5571454474       -4.8920902724  MEMB      176             0.0000000000
     21846       176  DOPE      C315          -36.1420086191       -0.9284873522       -3.3544896951  MEMB      176             0.0000000000
     21847       176  DOPE      H15X          -36.6174492602       -1.9302249388       -3.2852152124  MEMB      176             0.0000000000
     21848       176  DOPE      H15Y          -36.8914973716       -0.1137829857       -3.2604450509  MEMB      176             0.0000000000
     21849       176  DOPE      C316          -35.1171068810       -0.7483981864       -2.2700908620  MEMB      176             0.0000000000
     21850       176  DOPE      H16X          -34.8119682090        0.3039101144       -2.4540971096  MEMB      176             0.0000000000
     21851       176  DOPE      H16Y          -34.2008981270       -1.2934582671       -2.5828078438  MEMB      176             0.0000000000
     21852       176  DOPE      C317          -35.5792431057       -0.9865123105       -0.8226066353  MEMB      176             0.0000000000
     21853       176  DOPE      H17X          -34.7464281367       -0.8233802672       -0.1055792973  MEMB      176             0.0000000000
     21854       176  DOPE      H17Y          -36.3886433698       -0.2897811186       -0.5164073349  MEMB      176             0.0000000000
     21855       176  DOPE      C318          -36.1058853866       -2.3606535213       -0.6083249811  MEMB      176             0.0000000000
     21856       176  DOPE      H18X          -35.2799884660       -3.0900292998       -0.7505439374  MEMB      176             0.0000000000
     21857       176  DOPE      H18Y          -36.4681833005       -2.4607818182        0.4371595185  MEMB      176             0.0000000000
     21858       176  DOPE      H18Z          -36.9166266881       -2.6811227856       -1.2970332674  MEMB      176             0.0000000000
     21859       177  DOPC      N              11.3438378710       34.4972320885      -17.9980700412  MEMB      177             0.0000000000
     21860       177  DOPC      C12            10.8278726873       35.9159260362      -18.2966914934  MEMB      177             0.0000000000
     21861       177  DOPC      H12A           11.3331066433       36.6026333761      -17.6336895131  MEMB      177             0.0000000000
     21862       177  DOPC      H12B            9.8279199468       36.0480868832      -17.9106497357  MEMB      177             0.0000000000
     21863       177  DOPC      C13            11.1513990182       34.2914946357      -16.5104301458  MEMB      177             0.0000000000
     21864       177  DOPC      H13A           10.1091910108       34.3418896712      -16.2317501776  MEMB      177             0.0000000000
     21865       177  DOPC      H13B           11.6787866891       33.3956936951      -16.2175091098  MEMB      177             0.0000000000
     21866       177  DOPC      H13C           11.6005430621       35.1851511510      -16.1029404084  MEMB      177             0.0000000000
     21867       177  DOPC      C14            12.8428853548       34.3353205808      -18.2154743429  MEMB      177             0.0000000000
     21868       177  DOPC      H14A           13.1163908575       34.4550558103      -19.2533848589  MEMB      177             0.0000000000
     21869       177  DOPC      H14B           13.3702305140       35.0973163280      -17.6607945787  MEMB      177             0.0000000000
     21870       177  DOPC      H14C           13.1582890280       33.3830614382      -17.8153207502  MEMB      177             0.0000000000
     21871       177  DOPC      C15            10.6303623076       33.3939158560      -18.7644407946  MEMB      177             0.0000000000
     21872       177  DOPC      H15A            9.6514751370       33.3528963355      -18.3100212205  MEMB      177             0.0000000000
     21873       177  DOPC      H15B           11.1020458292       32.4663966684      -18.4752645922  MEMB      177             0.0000000000
     21874       177  DOPC      H15C           10.7828447141       33.5986205350      -19.8138430324  MEMB      177             0.0000000000
     21875       177  DOPC      C11            10.8717330929       36.4565168564      -19.7292759558  MEMB      177             0.0000000000
     21876       177  DOPC      H11A           10.2570688637       35.7533293247      -20.3309703644  MEMB      177             0.0000000000
     21877       177  DOPC      H11B           10.2439353062       37.3718572100      -19.7776818851  MEMB      177             0.0000000000
     21878       177  DOPC      P              13.0380838736       37.7737148695      -19.9585473503  MEMB      177             0.0000000000
     21879       177  DOPC      O13            12.4467562766       38.9719195641      -20.5891306976  MEMB      177             0.0000000000
     21880       177  DOPC      O14            14.4896257032       37.5106701432      -20.2419729283  MEMB      177             0.0000000000
     21881       177  DOPC      O12            12.1570311374       36.4863723294      -20.2911497257  MEMB      177             0.0000000000
     21882       177  DOPC      O11            12.8079173730       37.8725387393      -18.4048165244  MEMB      177             0.0000000000
     21883       177  DOPC      C1             13.3012745908       39.0413189856      -17.7177558604  MEMB      177             0.0000000000
     21884       177  DOPC      HA             12.9823513906       39.9231850547      -18.3135083826  MEMB      177             0.0000000000
     21885       177  DOPC      HB             14.4070991064       38.9829143811      -17.6279664513  MEMB      177             0.0000000000
     21886       177  DOPC      C2             12.4490127109       39.0300064982      -16.4123381321  MEMB      177             0.0000000000
     21887       177  DOPC      HS             12.8024952957       39.8887991214      -15.8025461356  MEMB      177             0.0000000000
     21888       177  DOPC      O21            12.6122711270       37.8284704987      -15.6960915534  MEMB      177             0.0000000000
     21889       177  DOPC      C21            13.7171754878       37.7338135686      -14.8643869013  MEMB      177             0.0000000000
     21890       177  DOPC      O22            14.6194118833       38.5849026595      -14.8181938417  MEMB      177             0.0000000000
     21891       177  DOPC      C22            13.6969500463       36.4462773744      -14.0898668284  MEMB      177             0.0000000000
     21892       177  DOPC      H2R            14.3989277624       35.8088349131      -14.6688443978  MEMB      177             0.0000000000
     21893       177  DOPC      H2S            12.6956664401       35.9678675859      -14.1434993478  MEMB      177             0.0000000000
     21894       177  DOPC      C3             10.9786799112       39.1658273539      -16.7021799040  MEMB      177             0.0000000000
     21895       177  DOPC      HX             10.6006277601       38.3906020408      -17.4024820011  MEMB      177             0.0000000000
     21896       177  DOPC      HY             10.9477170951       40.0839339103      -17.3270340217  MEMB      177             0.0000000000
     21897       177  DOPC      O31            10.2336242145       39.4020591945      -15.5218966513  MEMB      177             0.0000000000
     21898       177  DOPC      C31             9.7938490636       38.2833460379      -14.9381825824  MEMB      177             0.0000000000
     21899       177  DOPC      O32             9.9940641222       37.1709272917      -15.3163391134  MEMB      177             0.0000000000
     21900       177  DOPC      C32             8.8322306858       38.6773160080      -13.7211073268  MEMB      177             0.0000000000
     21901       177  DOPC      H2X             9.4173433465       38.9982131043      -12.8328564972  MEMB      177             0.0000000000
     21902       177  DOPC      H2Y             8.1364298427       39.4767512610      -14.0544012765  MEMB      177             0.0000000000
     21903       177  DOPC      C23            14.3830625137       36.5257764200      -12.7348440262  MEMB      177             0.0000000000
     21904       177  DOPC      H3R            15.3804898660       37.0138819638      -12.7696654418  MEMB      177             0.0000000000
     21905       177  DOPC      H3S            14.5703054094       35.5569620599      -12.2242952589  MEMB      177             0.0000000000
     21906       177  DOPC      C24            13.4313080856       37.1949321358      -11.6508856889  MEMB      177             0.0000000000
     21907       177  DOPC      H4R            12.5885826009       36.4767985278      -11.7426399154  MEMB      177             0.0000000000
     21908       177  DOPC      H4S            13.1607370848       38.2155365062      -11.9965433045  MEMB      177             0.0000000000
     21909       177  DOPC      C25            14.0624051227       37.1145230014      -10.2538899708  MEMB      177             0.0000000000
     21910       177  DOPC      H5R            15.0247350739       37.6664333611      -10.3141984707  MEMB      177             0.0000000000
     21911       177  DOPC      H5S            14.4238831615       36.0767360574      -10.0906328855  MEMB      177             0.0000000000
     21912       177  DOPC      C26            13.1921818364       37.7314091497       -9.1103497686  MEMB      177             0.0000000000
     21913       177  DOPC      H6R            13.2904007449       38.8269035406       -9.2670842590  MEMB      177             0.0000000000
     21914       177  DOPC      H6S            13.7401496773       37.5097393318       -8.1696504520  MEMB      177             0.0000000000
     21915       177  DOPC      C27            11.7626581403       37.3037278498       -9.1495551963  MEMB      177             0.0000000000
     21916       177  DOPC      H7R            11.8236818228       36.1994794685       -9.2555390719  MEMB      177             0.0000000000
     21917       177  DOPC      H7S            11.2382807734       37.6066432721      -10.0810016882  MEMB      177             0.0000000000
     21918       177  DOPC      C28            10.7896847547       37.5213175176       -7.9581273149  MEMB      177             0.0000000000
     21919       177  DOPC      H8R            11.2612913363       37.2956904394       -6.9778213002  MEMB      177             0.0000000000
     21920       177  DOPC      H8S             9.9482439032       36.8094595965       -8.0979723259  MEMB      177             0.0000000000
     21921       177  DOPC      C29            10.3062728077       38.9096960908       -8.0228338482  MEMB      177             0.0000000000
     21922       177  DOPC      H9R             9.8391549216       39.1851603407       -8.9798709912  MEMB      177             0.0000000000
     21923       177  DOPC      C210           10.1983403423       39.7814870063       -6.9827165968  MEMB      177             0.0000000000
     21924       177  DOPC      H10R            9.8569120124       40.8048427018       -7.1975881914  MEMB      177             0.0000000000
     21925       177  DOPC      C211           10.5560916221       39.4582175468       -5.5658367121  MEMB      177             0.0000000000
     21926       177  DOPC      H11R           10.6497152422       38.3605422320       -5.4220848747  MEMB      177             0.0000000000
     21927       177  DOPC      H11S            9.8117848563       39.9459097847       -4.9006419957  MEMB      177             0.0000000000
     21928       177  DOPC      C212           11.9684996456       39.9886286159       -5.2225476132  MEMB      177             0.0000000000
     21929       177  DOPC      H12R           12.0364467192       41.0974072756       -5.2048184932  MEMB      177             0.0000000000
     21930       177  DOPC      H12S           12.6645883511       39.7761166194       -6.0619639970  MEMB      177             0.0000000000
     21931       177  DOPC      C213           12.6572432517       39.4457463057       -3.9777742428  MEMB      177             0.0000000000
     21932       177  DOPC      H13R           13.7621953050       39.5611314565       -3.9871792582  MEMB      177             0.0000000000
     21933       177  DOPC      H13S           12.5104899266       38.3497042562       -3.8706466872  MEMB      177             0.0000000000
     21934       177  DOPC      C214           12.0901877822       40.0131773336       -2.6925583502  MEMB      177             0.0000000000
     21935       177  DOPC      H14R           10.9834747768       40.0204890268       -2.7897907811  MEMB      177             0.0000000000
     21936       177  DOPC      H14S           12.2639538208       41.1002534776       -2.5429178221  MEMB      177             0.0000000000
     21937       177  DOPC      C215           12.4439161901       39.3017717555       -1.3693645873  MEMB      177             0.0000000000
     21938       177  DOPC      H15R           13.5531336133       39.2607551153       -1.4170728183  MEMB      177             0.0000000000
     21939       177  DOPC      H15S           12.1011498786       38.2459386125       -1.4146263464  MEMB      177             0.0000000000
     21940       177  DOPC      C216           12.0275564292       40.0709217972       -0.0875326892  MEMB      177             0.0000000000
     21941       177  DOPC      H16R           12.4190155401       41.1068373750       -0.1767458349  MEMB      177             0.0000000000
     21942       177  DOPC      H16S           12.5409452119       39.4975157143        0.7136906060  MEMB      177             0.0000000000
     21943       177  DOPC      C217           10.5240528312       39.9010020405        0.1543343985  MEMB      177             0.0000000000
     21944       177  DOPC      H17R           10.1307127571       38.8629299048        0.1094926080  MEMB      177             0.0000000000
     21945       177  DOPC      H17S            9.8985390249       40.4324819870       -0.5943859902  MEMB      177             0.0000000000
     21946       177  DOPC      C218           10.0585337274       40.4337308431        1.5102095268  MEMB      177             0.0000000000
     21947       177  DOPC      H18R           10.5255763055       39.8492029750        2.3315009636  MEMB      177             0.0000000000
     21948       177  DOPC      H18S            8.9645485984       40.2489707448        1.5683559386  MEMB      177             0.0000000000
     21949       177  DOPC      H18T           10.3279250344       41.5044765374        1.6337139008  MEMB      177             0.0000000000
     21950       177  DOPC      C33             8.1214162702       37.4852827446      -13.0590775063  MEMB      177             0.0000000000
     21951       177  DOPC      H3X             8.9639711655       36.8999204674      -12.6327292972  MEMB      177             0.0000000000
     21952       177  DOPC      H3Y             7.5729903750       36.7967615523      -13.7369334605  MEMB      177             0.0000000000
     21953       177  DOPC      C34             7.2645679695       37.9198552875      -11.8489823611  MEMB      177             0.0000000000
     21954       177  DOPC      H4X             6.2274259855       38.1480279326      -12.1754712047  MEMB      177             0.0000000000
     21955       177  DOPC      H4Y             7.7309236570       38.8390564552      -11.4343712518  MEMB      177             0.0000000000
     21956       177  DOPC      C35             7.3152287560       36.8767801400      -10.7594443947  MEMB      177             0.0000000000
     21957       177  DOPC      H5X             6.8944055821       37.3890848551       -9.8679436562  MEMB      177             0.0000000000
     21958       177  DOPC      H5Y             8.3933963155       36.8301227385      -10.4954393851  MEMB      177             0.0000000000
     21959       177  DOPC      C36             6.7811912503       35.5410549111      -11.1310108462  MEMB      177             0.0000000000
     21960       177  DOPC      H6X             5.6977775112       35.5928197107      -11.3715441591  MEMB      177             0.0000000000
     21961       177  DOPC      H6Y             7.3009171092       35.1064801093      -12.0115506238  MEMB      177             0.0000000000
     21962       177  DOPC      C37             6.8369567609       34.4581765442      -10.0699296647  MEMB      177             0.0000000000
     21963       177  DOPC      H7X             6.1158858900       34.7453088466       -9.2749877541  MEMB      177             0.0000000000
     21964       177  DOPC      H7Y             6.4555323913       33.5102102352      -10.5060453193  MEMB      177             0.0000000000
     21965       177  DOPC      C38             8.1609984139       34.2586182378       -9.3411336485  MEMB      177             0.0000000000
     21966       177  DOPC      H8X             8.4438805936       35.3148217643       -9.1443276419  MEMB      177             0.0000000000
     21967       177  DOPC      H8Y             8.8056375870       33.7336445553      -10.0781311002  MEMB      177             0.0000000000
     21968       177  DOPC      C39             8.1599105801       33.3066181592       -8.1832117638  MEMB      177             0.0000000000
     21969       177  DOPC      H9X             8.1105199176       32.2339639689       -8.4219032520  MEMB      177             0.0000000000
     21970       177  DOPC      C310            8.1059059233       33.7707784537       -6.8670156409  MEMB      177             0.0000000000
     21971       177  DOPC      H10X            8.0256434361       33.0264927988       -6.0610402873  MEMB      177             0.0000000000
     21972       177  DOPC      C311            8.0700120824       35.1005706184       -6.3870945374  MEMB      177             0.0000000000
     21973       177  DOPC      H11X            7.8554234173       35.7626706625       -7.2530594686  MEMB      177             0.0000000000
     21974       177  DOPC      H11Y            9.0318083455       35.3981666312       -5.9173012992  MEMB      177             0.0000000000
     21975       177  DOPC      C312            7.0381256184       35.2478404233       -5.2154495974  MEMB      177             0.0000000000
     21976       177  DOPC      H12X            6.1516287981       34.6095236535       -5.4179257459  MEMB      177             0.0000000000
     21977       177  DOPC      H12Y            6.5838698455       36.2616513427       -5.2281050045  MEMB      177             0.0000000000
     21978       177  DOPC      C313            7.6043275597       34.7773666002       -3.8865689661  MEMB      177             0.0000000000
     21979       177  DOPC      H13X            6.7614592390       34.6184105238       -3.1804339459  MEMB      177             0.0000000000
     21980       177  DOPC      H13Y            8.0695412933       33.7693576366       -3.8439654171  MEMB      177             0.0000000000
     21981       177  DOPC      C314            8.4596199061       35.8331695644       -3.1543173154  MEMB      177             0.0000000000
     21982       177  DOPC      H14X            8.0712639356       36.8338981825       -3.4407476275  MEMB      177             0.0000000000
     21983       177  DOPC      H14Y            8.2224982006       35.7004317766       -2.0770638648  MEMB      177             0.0000000000
     21984       177  DOPC      C315            9.9836482520       35.7507934889       -3.2974298288  MEMB      177             0.0000000000
     21985       177  DOPC      H15X           10.3681628693       36.7539080110       -3.0141798037  MEMB      177             0.0000000000
     21986       177  DOPC      H15Y           10.3950065041       35.6886336560       -4.3275960709  MEMB      177             0.0000000000
     21987       177  DOPC      C316           10.4994429646       34.6560172758       -2.4415022709  MEMB      177             0.0000000000
     21988       177  DOPC      H16X           10.0737875604       34.5944849317       -1.4171215942  MEMB      177             0.0000000000
     21989       177  DOPC      H16Y           10.3847535816       33.6810149410       -2.9616339026  MEMB      177             0.0000000000
     21990       177  DOPC      C317           12.0125104907       34.8111028176       -1.9719235792  MEMB      177             0.0000000000
     21991       177  DOPC      H17X           12.7222928739       34.9356775154       -2.8175064611  MEMB      177             0.0000000000
     21992       177  DOPC      H17Y           12.0760873995       35.6462109613       -1.2419419055  MEMB      177             0.0000000000
     21993       177  DOPC      C318           12.4617538484       33.5175961227       -1.3301412215  MEMB      177             0.0000000000
     21994       177  DOPC      H18X           12.4982156429       32.7341805398       -2.1170681335  MEMB      177             0.0000000000
     21995       177  DOPC      H18Y           13.4432020992       33.8037966679       -0.8952046403  MEMB      177             0.0000000000
     21996       177  DOPC      H18Z           11.7559406885       33.2299298246       -0.5218120554  MEMB      177             0.0000000000
     21997       178  23SM      N               4.0608482023      -39.4454119714      -27.7183602428  MEMB      178             0.0000000000
     21998       178  23SM      C15             2.6393073604      -39.1946476015      -27.6210688191  MEMB      178             0.0000000000
     21999       178  23SM      H15A            2.3933762412      -38.9039874139      -28.6317292884  MEMB      178             0.0000000000
     22000       178  23SM      H15B            2.4477052637      -38.3276147355      -27.0062984813  MEMB      178             0.0000000000
     22001       178  23SM      H15C            2.1221183309      -40.0961849325      -27.3275619523  MEMB      178             0.0000000000
     22002       178  23SM      C14             4.2956479510      -40.5697328730      -28.7101505917  MEMB      178             0.0000000000
     22003       178  23SM      H14A            3.9010833291      -41.4782952087      -28.2797629460  MEMB      178             0.0000000000
     22004       178  23SM      H14B            5.3441510364      -40.7736031483      -28.8697695631  MEMB      178             0.0000000000
     22005       178  23SM      H14C            3.8097874371      -40.3294725150      -29.6442888538  MEMB      178             0.0000000000
     22006       178  23SM      C13             4.7353036988      -38.1958256089      -28.2948023410  MEMB      178             0.0000000000
     22007       178  23SM      H13A            4.4162295446      -37.8861274991      -29.2790171148  MEMB      178             0.0000000000
     22008       178  23SM      H13B            5.7869409827      -38.4377316239      -28.3388533371  MEMB      178             0.0000000000
     22009       178  23SM      H13C            4.5981425415      -37.3434099956      -27.6459767744  MEMB      178             0.0000000000
     22010       178  23SM      C12             4.6644043028      -39.7334124795      -26.2823587707  MEMB      178             0.0000000000
     22011       178  23SM      H12A            5.6967267998      -39.4302289874      -26.1886039298  MEMB      178             0.0000000000
     22012       178  23SM      H12B            4.6268235918      -40.8065609472      -26.1668606631  MEMB      178             0.0000000000
     22013       178  23SM      C11             3.9517018759      -39.0618026486      -25.0634743051  MEMB      178             0.0000000000
     22014       178  23SM      H11A            4.4839926958      -39.4938533362      -24.1892204981  MEMB      178             0.0000000000
     22015       178  23SM      H11B            2.8779206989      -39.3278952806      -24.9609576267  MEMB      178             0.0000000000
     22016       178  23SM      P               4.9248147524      -36.7250108973      -24.4805357424  MEMB      178             0.0000000000
     22017       178  23SM      O13             6.3583281181      -36.8816353136      -24.9490091728  MEMB      178             0.0000000000
     22018       178  23SM      O14             4.3630602633      -35.3506886029      -24.6680597853  MEMB      178             0.0000000000
     22019       178  23SM      O11             4.7355347591      -37.1878051336      -22.9774058945  MEMB      178             0.0000000000
     22020       178  23SM      O12             3.9730790169      -37.7025932025      -25.2347743349  MEMB      178             0.0000000000
     22021       178  23SM      C1S             3.4459706053      -37.1215009607      -22.3617026087  MEMB      178             0.0000000000
     22022       178  23SM      H1S             2.7766181348      -37.9660082745      -22.6320646979  MEMB      178             0.0000000000
     22023       178  23SM      H1T             2.9252115792      -36.2192633432      -22.7478350860  MEMB      178             0.0000000000
     22024       178  23SM      NF              4.0137238984      -35.8624359536      -20.2986393210  MEMB      178             0.0000000000
     22025       178  23SM      HNF             4.8332861113      -35.8823758147      -19.7312511973  MEMB      178             0.0000000000
     22026       178  23SM      C2S             3.5485033191      -37.1016662806      -20.8092465802  MEMB      178             0.0000000000
     22027       178  23SM      H2S             2.5508322827      -37.2354090381      -20.3390483398  MEMB      178             0.0000000000
     22028       178  23SM      C3S             4.5670123081      -38.2271900893      -20.4041708128  MEMB      178             0.0000000000
     22029       178  23SM      H3S             5.6250524827      -38.0474111728      -20.6914890106  MEMB      178             0.0000000000
     22030       178  23SM      O3              4.3823989245      -39.5210512011      -21.0204318983  MEMB      178             0.0000000000
     22031       178  23SM      HO3             3.6807653444      -39.3246432786      -21.6455194698  MEMB      178             0.0000000000
     22032       178  23SM      C4S             4.4812295596      -38.3776683364      -18.8703086564  MEMB      178             0.0000000000
     22033       178  23SM      H4S             3.6548070933      -38.9680029695      -18.4477793594  MEMB      178             0.0000000000
     22034       178  23SM      C5S             5.2380530515      -37.6395254374      -17.9567365278  MEMB      178             0.0000000000
     22035       178  23SM      H5S             6.0573124783      -36.9538154260      -18.2186827853  MEMB      178             0.0000000000
     22036       178  23SM      C6S             5.1204605253      -37.7949953745      -16.4912137575  MEMB      178             0.0000000000
     22037       178  23SM      H6S             4.5099090763      -38.6764752752      -16.2004542199  MEMB      178             0.0000000000
     22038       178  23SM      H6T             4.7228603394      -36.8888272906      -15.9861449941  MEMB      178             0.0000000000
     22039       178  23SM      C7S             6.5156991171      -37.9390394528      -15.8035361441  MEMB      178             0.0000000000
     22040       178  23SM      H7S             7.3032104254      -37.2059068664      -16.0804181163  MEMB      178             0.0000000000
     22041       178  23SM      H7T             7.1452259541      -38.8086137189      -16.0896436673  MEMB      178             0.0000000000
     22042       178  23SM      C8S             6.4081733386      -37.9513871475      -14.2466763711  MEMB      178             0.0000000000
     22043       178  23SM      H8S             7.2268416853      -38.6458465886      -13.9606182024  MEMB      178             0.0000000000
     22044       178  23SM      H8T             5.4362858670      -38.4156210618      -13.9742015922  MEMB      178             0.0000000000
     22045       178  23SM      C9S             6.2755389499      -36.6079785323      -13.5623699409  MEMB      178             0.0000000000
     22046       178  23SM      H9S             5.3597471706      -36.1259447053      -13.9664613962  MEMB      178             0.0000000000
     22047       178  23SM      H9T             7.1579192961      -36.0088857668      -13.8735179730  MEMB      178             0.0000000000
     22048       178  23SM      C10S            6.4326102004      -36.7133832833      -12.0449064286  MEMB      178             0.0000000000
     22049       178  23SM      H10S            7.4469107296      -37.1385184516      -11.8875033907  MEMB      178             0.0000000000
     22050       178  23SM      H10T            5.5969537034      -37.2565309388      -11.5539996350  MEMB      178             0.0000000000
     22051       178  23SM      C11S            6.4685544704      -35.3885892509      -11.3439988209  MEMB      178             0.0000000000
     22052       178  23SM      H11S            5.8682947320      -34.7157859388      -11.9931090581  MEMB      178             0.0000000000
     22053       178  23SM      H11T            7.4784041622      -34.9264059828      -11.3741818247  MEMB      178             0.0000000000
     22054       178  23SM      C12S            5.7751083020      -35.3648871513       -9.9719464004  MEMB      178             0.0000000000
     22055       178  23SM      H12S            4.9326386358      -36.0867754379      -10.0306246609  MEMB      178             0.0000000000
     22056       178  23SM      H12T            5.3898771786      -34.3827462009       -9.6236404830  MEMB      178             0.0000000000
     22057       178  23SM      C13S            6.6282727583      -35.8838420019       -8.8765839479  MEMB      178             0.0000000000
     22058       178  23SM      H13S            7.6171106601      -35.3797532967       -8.8274355078  MEMB      178             0.0000000000
     22059       178  23SM      H13T            6.8080210236      -36.9764983901       -8.9666584149  MEMB      178             0.0000000000
     22060       178  23SM      C14S            6.2246872345      -35.5441517937       -7.3916653761  MEMB      178             0.0000000000
     22061       178  23SM      H14S            5.3825421828      -36.2400962165       -7.1897386204  MEMB      178             0.0000000000
     22062       178  23SM      H14T            5.9232082171      -34.4822274798       -7.2661716684  MEMB      178             0.0000000000
     22063       178  23SM      C15S            7.3635195227      -35.8320670781       -6.3516392924  MEMB      178             0.0000000000
     22064       178  23SM      H15S            8.3427754257      -35.4462529693       -6.7073452032  MEMB      178             0.0000000000
     22065       178  23SM      H15T            7.5006565165      -36.9312835896       -6.2665658839  MEMB      178             0.0000000000
     22066       178  23SM      C16S            7.0607417359      -35.3642094693       -4.9321378949  MEMB      178             0.0000000000
     22067       178  23SM      H16S            6.2758554465      -35.9597261363       -4.4186842837  MEMB      178             0.0000000000
     22068       178  23SM      H16T            6.6423580322      -34.3392011550       -5.0250578149  MEMB      178             0.0000000000
     22069       178  23SM      C17S            8.3344071054      -35.3656355638       -4.0577215843  MEMB      178             0.0000000000
     22070       178  23SM      H17S            9.3161188259      -35.1060590473       -4.5084809507  MEMB      178             0.0000000000
     22071       178  23SM      H17T            8.5089549157      -36.3924819299       -3.6711472441  MEMB      178             0.0000000000
     22072       178  23SM      C18S            8.1629593066      -34.6081411454       -2.6944236326  MEMB      178             0.0000000000
     22073       178  23SM      H18S            7.5826017088      -33.6614824188       -2.7310743198  MEMB      178             0.0000000000
     22074       178  23SM      H18T            9.2029193834      -34.3540671748       -2.3973544308  MEMB      178             0.0000000000
     22075       178  23SM      H18U            7.7137219749      -35.2439441450       -1.9017941266  MEMB      178             0.0000000000
     22076       178  23SM      C1F             3.4676507440      -34.6792605593      -20.4256806309  MEMB      178             0.0000000000
     22077       178  23SM      OF              2.5125255275      -34.4048474535      -21.1453100709  MEMB      178             0.0000000000
     22078       178  23SM      C2F             4.0012475879      -33.6007344557      -19.5392987418  MEMB      178             0.0000000000
     22079       178  23SM      H2F             3.3543106006      -32.7895001190      -19.9364034312  MEMB      178             0.0000000000
     22080       178  23SM      H2G             5.0174831431      -33.3164268284      -19.8867975525  MEMB      178             0.0000000000
     22081       178  23SM      C3F             3.7935809523      -33.8078958047      -18.0953547041  MEMB      178             0.0000000000
     22082       178  23SM      H3F             4.3185861997      -34.7610295747      -17.8712419466  MEMB      178             0.0000000000
     22083       178  23SM      H3G             2.7048173683      -33.9363728633      -17.9153309059  MEMB      178             0.0000000000
     22084       178  23SM      C4F             4.3633188633      -32.5723958877      -17.3721123635  MEMB      178             0.0000000000
     22085       178  23SM      H4F             3.7793340103      -31.6799014577      -17.6831370987  MEMB      178             0.0000000000
     22086       178  23SM      H4G             5.4216626044      -32.4379310344      -17.6821902423  MEMB      178             0.0000000000
     22087       178  23SM      C5F             4.3866204011      -32.6639812547      -15.8840875770  MEMB      178             0.0000000000
     22088       178  23SM      H5F             4.9093038814      -31.7845489455      -15.4508181029  MEMB      178             0.0000000000
     22089       178  23SM      H5G             4.8277995672      -33.6288259816      -15.5543054176  MEMB      178             0.0000000000
     22090       178  23SM      C6F             2.8881426101      -32.6676514256      -15.4675803588  MEMB      178             0.0000000000
     22091       178  23SM      H6F             2.2123535970      -33.0754813855      -16.2494402169  MEMB      178             0.0000000000
     22092       178  23SM      H6G             2.6663991102      -31.6158333357      -15.1868155473  MEMB      178             0.0000000000
     22093       178  23SM      C7F             2.7300114741      -33.6299616428      -14.2844639452  MEMB      178             0.0000000000
     22094       178  23SM      H7F             3.3743494468      -34.5110790128      -14.4913018535  MEMB      178             0.0000000000
     22095       178  23SM      H7G             1.6944513337      -34.0300157673      -14.2409574335  MEMB      178             0.0000000000
     22096       178  23SM      C8F             3.1643090257      -33.0712905743      -12.9120848786  MEMB      178             0.0000000000
     22097       178  23SM      H8F             2.4527511354      -32.2538065428      -12.6676950608  MEMB      178             0.0000000000
     22098       178  23SM      H8G             4.2369751816      -32.7821157047      -12.9213733552  MEMB      178             0.0000000000
     22099       178  23SM      C9F             3.1590409647      -34.0977755210      -11.8592365473  MEMB      178             0.0000000000
     22100       178  23SM      H9F             3.6311917481      -33.7199146177      -10.9272410778  MEMB      178             0.0000000000
     22101       178  23SM      H9G             3.6863630363      -35.0395382290      -12.1225532051  MEMB      178             0.0000000000
     22102       178  23SM      C10F            1.7616048454      -34.3945579032      -11.2320640057  MEMB      178             0.0000000000
     22103       178  23SM      H10F            1.2413057722      -34.9786948347      -12.0209830599  MEMB      178             0.0000000000
     22104       178  23SM      H10G            1.2019337960      -33.4411341677      -11.1221884408  MEMB      178             0.0000000000
     22105       178  23SM      C11F            1.8934959891      -35.3085873654       -9.9646773449  MEMB      178             0.0000000000
     22106       178  23SM      H11F            2.7022068212      -36.0483377736      -10.1465484869  MEMB      178             0.0000000000
     22107       178  23SM      H11G            0.9531726168      -35.8998198194       -9.9410732196  MEMB      178             0.0000000000
     22108       178  23SM      C12F            2.0318772657      -34.6163074536       -8.5570424223  MEMB      178             0.0000000000
     22109       178  23SM      H12F            1.1835570621      -33.9249243330       -8.3655663224  MEMB      178             0.0000000000
     22110       178  23SM      H12G            2.9760702916      -34.0308797192       -8.5473007218  MEMB      178             0.0000000000
     22111       178  23SM      C13F            2.1071824513      -35.4734541368       -7.2920998853  MEMB      178             0.0000000000
     22112       178  23SM      H13F            3.1877396591      -35.6515273226       -7.1049987729  MEMB      178             0.0000000000
     22113       178  23SM      H13G            1.6119654922      -36.4455401978       -7.5021699690  MEMB      178             0.0000000000
     22114       178  23SM      C14F            1.4829651529      -34.8239035939       -6.0800853683  MEMB      178             0.0000000000
     22115       178  23SM      H14F            0.3756121512      -34.7408246579       -6.1145566770  MEMB      178             0.0000000000
     22116       178  23SM      H14G            1.8407544752      -33.7734383982       -6.0268818531  MEMB      178             0.0000000000
     22117       178  23SM      C15F            1.8384745973      -35.4405655702       -4.6450305845  MEMB      178             0.0000000000
     22118       178  23SM      H15F            1.2292895359      -36.3333162707       -4.3877163343  MEMB      178             0.0000000000
     22119       178  23SM      H15G            1.4290913082      -34.8028119002       -3.8326286064  MEMB      178             0.0000000000
     22120       178  23SM      C16F            3.3136601985      -35.8039744542       -4.3650671812  MEMB      178             0.0000000000
     22121       178  23SM      H16F            4.0886094186      -35.0130403579       -4.4556089732  MEMB      178             0.0000000000
     22122       178  23SM      H16G            3.4960713027      -36.6643180453       -5.0439298808  MEMB      178             0.0000000000
     22123       178  23SM      C17F            3.3578117377      -36.4935712269       -2.9924783119  MEMB      178             0.0000000000
     22124       178  23SM      H17F            2.5832849962      -37.2885189666       -2.9426048536  MEMB      178             0.0000000000
     22125       178  23SM      H17G            3.2270607096      -35.6904817033       -2.2359920985  MEMB      178             0.0000000000
     22126       178  23SM      C18F            4.7112491001      -37.2443854272       -2.7315659270  MEMB      178             0.0000000000
     22127       178  23SM      H18F            5.5447412560      -36.5137080299       -2.6559192500  MEMB      178             0.0000000000
     22128       178  23SM      H18G            4.9144891039      -37.9934236412       -3.5265225757  MEMB      178             0.0000000000
     22129       178  23SM      C19F            4.7118366995      -38.1163011607       -1.4395815917  MEMB      178             0.0000000000
     22130       178  23SM      H19F            5.4278491364      -38.9634773373       -1.5023518375  MEMB      178             0.0000000000
     22131       178  23SM      H19G            3.7241603202      -38.5891140679       -1.2517939680  MEMB      178             0.0000000000
     22132       178  23SM      C20F            5.0522501203      -37.4803159155       -0.0819475892  MEMB      178             0.0000000000
     22133       178  23SM      H20F            5.7259111956      -36.6010074006       -0.1674943243  MEMB      178             0.0000000000
     22134       178  23SM      H20G            5.6067228891      -38.2312946276        0.5204749389  MEMB      178             0.0000000000
     22135       178  23SM      C21F            3.8203677374      -36.9690966074        0.6722319210  MEMB      178             0.0000000000
     22136       178  23SM      H21F            3.3639802907      -37.8999130694        1.0717472094  MEMB      178             0.0000000000
     22137       178  23SM      H21G            2.9743380493      -36.7202771090       -0.0035226325  MEMB      178             0.0000000000
     22138       178  23SM      C22F            3.9175593093      -35.7009868311        1.4873123779  MEMB      178             0.0000000000
     22139       178  23SM      H22F            4.6056545135      -35.8486949373        2.3469793893  MEMB      178             0.0000000000
     22140       178  23SM      H22G            2.9737137665      -35.4522093900        2.0179597886  MEMB      178             0.0000000000
     22141       178  23SM      C23F            4.1350210634      -34.4278697062        0.7283193270  MEMB      178             0.0000000000
     22142       178  23SM      H23F            4.2169791603      -33.5809083154        1.4426445968  MEMB      178             0.0000000000
     22143       178  23SM      H23G            3.1952793102      -34.1642202635        0.1975690974  MEMB      178             0.0000000000
     22144       178  23SM      H23H            5.0029351483      -34.3185024000        0.0434212788  MEMB      178             0.0000000000
     22145       179  DOPE      N             -35.7857143415       19.4331977030      -17.3010169612  MEMB      179             0.0000000000
     22146       179  DOPE      HN1           -36.7033013286       18.9882466310      -17.5051062018  MEMB      179             0.0000000000
     22147       179  DOPE      HN2           -35.2573742224       18.9167801121      -16.5690541052  MEMB      179             0.0000000000
     22148       179  DOPE      HN3           -35.8933428619       20.3627183877      -16.8471361693  MEMB      179             0.0000000000
     22149       179  DOPE      C12           -35.0170662339       19.5410940628      -18.5706297547  MEMB      179             0.0000000000
     22150       179  DOPE      H12A          -35.7013725673       19.6094942138      -19.4431932434  MEMB      179             0.0000000000
     22151       179  DOPE      H12B          -34.4614325404       18.5926711772      -18.7321421345  MEMB      179             0.0000000000
     22152       179  DOPE      C11           -33.9134085200       20.5860549265      -18.4793558730  MEMB      179             0.0000000000
     22153       179  DOPE      H11A          -33.3418688045       20.2761640289      -17.5784502509  MEMB      179             0.0000000000
     22154       179  DOPE      H11B          -34.3723322064       21.5958646184      -18.4161539321  MEMB      179             0.0000000000
     22155       179  DOPE      P             -31.4773609410       20.8691966998      -19.6016445811  MEMB      179             0.0000000000
     22156       179  DOPE      O13           -31.0152822194       21.2611941341      -20.9093635053  MEMB      179             0.0000000000
     22157       179  DOPE      O14           -30.6796755163       19.8040356335      -19.0169556634  MEMB      179             0.0000000000
     22158       179  DOPE      O11           -31.4330210388       22.0403511071      -18.4862849835  MEMB      179             0.0000000000
     22159       179  DOPE      O12           -33.0157135683       20.4902741269      -19.6347486770  MEMB      179             0.0000000000
     22160       179  DOPE      C1            -30.7299595887       23.1778445689      -18.8884382637  MEMB      179             0.0000000000
     22161       179  DOPE      HA            -31.4339052358       23.6793073110      -19.5865189313  MEMB      179             0.0000000000
     22162       179  DOPE      HB            -29.7815343082       22.8959661489      -19.3937649597  MEMB      179             0.0000000000
     22163       179  DOPE      C2            -30.4761031215       24.0544480908      -17.7124021333  MEMB      179             0.0000000000
     22164       179  DOPE      HS            -29.8920779395       24.9101981528      -18.1135599904  MEMB      179             0.0000000000
     22165       179  DOPE      O21           -29.8418854916       23.2168815558      -16.7469071045  MEMB      179             0.0000000000
     22166       179  DOPE      C21           -29.2189899269       23.7871699220      -15.7344948412  MEMB      179             0.0000000000
     22167       179  DOPE      O22           -29.2378693676       24.9691698954      -15.4580191422  MEMB      179             0.0000000000
     22168       179  DOPE      C22           -28.4682938549       22.7156918908      -14.9311864018  MEMB      179             0.0000000000
     22169       179  DOPE      H2R           -27.7090498861       22.1319407917      -15.4943067009  MEMB      179             0.0000000000
     22170       179  DOPE      H2S           -29.1610973353       21.8756088542      -14.7107213437  MEMB      179             0.0000000000
     22171       179  DOPE      C3            -31.7994763490       24.6933269713      -17.1888689978  MEMB      179             0.0000000000
     22172       179  DOPE      HX            -32.2958119747       25.2358838769      -18.0216977631  MEMB      179             0.0000000000
     22173       179  DOPE      HY            -31.6749438824       25.6028153233      -16.5630547427  MEMB      179             0.0000000000
     22174       179  DOPE      O31           -32.7086631284       23.7177584552      -16.6739108042  MEMB      179             0.0000000000
     22175       179  DOPE      C31           -32.6127331122       23.5169448687      -15.3987711873  MEMB      179             0.0000000000
     22176       179  DOPE      O32           -32.1112932493       24.2548543219      -14.5591623368  MEMB      179             0.0000000000
     22177       179  DOPE      C32           -33.2958543706       22.2421652985      -15.0698135271  MEMB      179             0.0000000000
     22178       179  DOPE      H2X           -34.3952926891       22.3132385147      -15.2130078764  MEMB      179             0.0000000000
     22179       179  DOPE      H2Y           -33.0626601141       21.3441185548      -15.6809217180  MEMB      179             0.0000000000
     22180       179  DOPE      C23           -27.7352907708       23.2557323563      -13.7494108395  MEMB      179             0.0000000000
     22181       179  DOPE      H3R           -28.5540710282       23.4944536923      -13.0374193694  MEMB      179             0.0000000000
     22182       179  DOPE      H3S           -27.1240643682       24.1694724411      -13.9100415994  MEMB      179             0.0000000000
     22183       179  DOPE      C24           -26.9457424955       22.1307793908      -13.0497594911  MEMB      179             0.0000000000
     22184       179  DOPE      H4R           -26.0480049689       21.8779782069      -13.6534811942  MEMB      179             0.0000000000
     22185       179  DOPE      H4S           -27.5583464882       21.2046953315      -13.0122650921  MEMB      179             0.0000000000
     22186       179  DOPE      C25           -26.4732078918       22.4219608987      -11.5973527802  MEMB      179             0.0000000000
     22187       179  DOPE      H5R           -25.9506602185       23.3996986694      -11.6701090969  MEMB      179             0.0000000000
     22188       179  DOPE      H5S           -25.6763878638       21.6791041482      -11.3792638059  MEMB      179             0.0000000000
     22189       179  DOPE      C26           -27.6542377835       22.2591955407      -10.6048789857  MEMB      179             0.0000000000
     22190       179  DOPE      H6R           -28.1152407867       21.2570524151      -10.7371915020  MEMB      179             0.0000000000
     22191       179  DOPE      H6S           -28.5258906040       22.9378520282      -10.7230648089  MEMB      179             0.0000000000
     22192       179  DOPE      C27           -27.2434197743       22.3077011776       -9.0698228854  MEMB      179             0.0000000000
     22193       179  DOPE      H7R           -26.3445079466       21.6712433464       -8.9242210683  MEMB      179             0.0000000000
     22194       179  DOPE      H7S           -28.0935326551       21.8374638034       -8.5308363333  MEMB      179             0.0000000000
     22195       179  DOPE      C28           -26.8914347232       23.7229511145       -8.5235004684  MEMB      179             0.0000000000
     22196       179  DOPE      H8R           -26.1215809827       24.0900783474       -9.2354442170  MEMB      179             0.0000000000
     22197       179  DOPE      H8S           -26.5193514739       23.5457131692       -7.4917727789  MEMB      179             0.0000000000
     22198       179  DOPE      C29           -28.0433527574       24.7277509626       -8.5883875497  MEMB      179             0.0000000000
     22199       179  DOPE      H9R           -28.4808073138       24.8302108557       -9.5924467745  MEMB      179             0.0000000000
     22200       179  DOPE      C210          -28.5642541508       25.3569524128       -7.5171252473  MEMB      179             0.0000000000
     22201       179  DOPE      H10R          -29.2760841174       26.1872632808       -7.6349468943  MEMB      179             0.0000000000
     22202       179  DOPE      C211          -28.1756971414       25.2270348893       -6.0943286215  MEMB      179             0.0000000000
     22203       179  DOPE      H11R          -28.6226004420       26.0763824457       -5.5346793351  MEMB      179             0.0000000000
     22204       179  DOPE      H11S          -27.0991996621       25.0434909680       -5.8899136816  MEMB      179             0.0000000000
     22205       179  DOPE      C212          -28.8093295629       23.9278105933       -5.4314295444  MEMB      179             0.0000000000
     22206       179  DOPE      H12R          -28.3805673860       22.9960437123       -5.8583887226  MEMB      179             0.0000000000
     22207       179  DOPE      H12S          -29.9018039508       24.0548971705       -5.5884961259  MEMB      179             0.0000000000
     22208       179  DOPE      C213          -28.5722917801       23.9008186410       -3.9192122603  MEMB      179             0.0000000000
     22209       179  DOPE      H13R          -29.0758076766       24.8057410632       -3.5168346326  MEMB      179             0.0000000000
     22210       179  DOPE      H13S          -27.4856966355       23.9795731995       -3.7014288974  MEMB      179             0.0000000000
     22211       179  DOPE      C214          -29.2465936979       22.7211266518       -3.4108716040  MEMB      179             0.0000000000
     22212       179  DOPE      H14R          -30.2055273747       22.4958381251       -3.9246923357  MEMB      179             0.0000000000
     22213       179  DOPE      H14S          -29.3240944567       22.8187054636       -2.3068818731  MEMB      179             0.0000000000
     22214       179  DOPE      C215          -28.3793239421       21.4612888163       -3.5757806219  MEMB      179             0.0000000000
     22215       179  DOPE      H15R          -27.3174062878       21.7848104144       -3.5312156291  MEMB      179             0.0000000000
     22216       179  DOPE      H15S          -28.5837255010       21.1218486909       -4.6137220682  MEMB      179             0.0000000000
     22217       179  DOPE      C216          -28.7373680639       20.2871566561       -2.6595172064  MEMB      179             0.0000000000
     22218       179  DOPE      H16R          -29.7957117024       19.9792406044       -2.7988654342  MEMB      179             0.0000000000
     22219       179  DOPE      H16S          -28.5829547271       20.5823495645       -1.5996414783  MEMB      179             0.0000000000
     22220       179  DOPE      C217          -27.9471742110       18.9514126547       -2.8273964992  MEMB      179             0.0000000000
     22221       179  DOPE      H17R          -26.9860164626       19.1963004160       -2.3268709181  MEMB      179             0.0000000000
     22222       179  DOPE      H17S          -27.5940758642       18.7512343644       -3.8615978442  MEMB      179             0.0000000000
     22223       179  DOPE      C218          -28.5983134847       17.7707437139       -2.2485982336  MEMB      179             0.0000000000
     22224       179  DOPE      H18R          -27.9709338032       16.8562152278       -2.3145817445  MEMB      179             0.0000000000
     22225       179  DOPE      H18S          -29.5036134937       17.5318089141       -2.8466473387  MEMB      179             0.0000000000
     22226       179  DOPE      H18T          -28.9863979347       17.8747037589       -1.2127879793  MEMB      179             0.0000000000
     22227       179  DOPE      C33           -33.1441465708       21.7910820743      -13.5572769080  MEMB      179             0.0000000000
     22228       179  DOPE      H3X           -33.8392407602       20.9501609256      -13.3474752578  MEMB      179             0.0000000000
     22229       179  DOPE      H3Y           -33.3912433975       22.6814973347      -12.9404908774  MEMB      179             0.0000000000
     22230       179  DOPE      C34           -31.7669979019       21.2224495383      -13.2277071305  MEMB      179             0.0000000000
     22231       179  DOPE      H4X           -31.5164915659       20.2714148066      -13.7445244587  MEMB      179             0.0000000000
     22232       179  DOPE      H4Y           -30.9808228215       21.9207761953      -13.5863010546  MEMB      179             0.0000000000
     22233       179  DOPE      C35           -31.4337094290       21.0788226986      -11.7166496998  MEMB      179             0.0000000000
     22234       179  DOPE      H5X           -30.3394379952       21.2493397604      -11.6282483287  MEMB      179             0.0000000000
     22235       179  DOPE      H5Y           -31.7247338501       20.0962081945      -11.2875873317  MEMB      179             0.0000000000
     22236       179  DOPE      C36           -32.0341414029       22.1756875929      -10.8577954542  MEMB      179             0.0000000000
     22237       179  DOPE      H6X           -33.1234703926       22.0004344014      -10.7275276343  MEMB      179             0.0000000000
     22238       179  DOPE      H6Y           -31.9066368101       23.1981543472      -11.2732778256  MEMB      179             0.0000000000
     22239       179  DOPE      C37           -31.4602510415       22.2158997443       -9.4535368995  MEMB      179             0.0000000000
     22240       179  DOPE      H7X           -30.3728425629       22.3779797228       -9.6135174605  MEMB      179             0.0000000000
     22241       179  DOPE      H7Y           -31.8169529277       23.1567191521       -8.9824282096  MEMB      179             0.0000000000
     22242       179  DOPE      C38           -31.6806850849       20.9660738999       -8.6530682185  MEMB      179             0.0000000000
     22243       179  DOPE      H8X           -31.3097653755       20.1248219199       -9.2767944730  MEMB      179             0.0000000000
     22244       179  DOPE      H8Y           -32.7507193507       20.6870652336       -8.5458211939  MEMB      179             0.0000000000
     22245       179  DOPE      C39           -31.0424572388       21.1106181968       -7.2651228545  MEMB      179             0.0000000000
     22246       179  DOPE      H9X           -30.0874843921       20.5980367672       -7.0772741699  MEMB      179             0.0000000000
     22247       179  DOPE      C310          -31.6646169847       21.7927814610       -6.2866966007  MEMB      179             0.0000000000
     22248       179  DOPE      H10X          -31.0220087790       21.8381800327       -5.3950717688  MEMB      179             0.0000000000
     22249       179  DOPE      C311          -32.9790348289       22.4263675591       -6.3119964399  MEMB      179             0.0000000000
     22250       179  DOPE      H11X          -32.9696415820       23.3265624435       -5.6609346072  MEMB      179             0.0000000000
     22251       179  DOPE      H11Y          -33.2662336474       22.6397793416       -7.3638016558  MEMB      179             0.0000000000
     22252       179  DOPE      C312          -33.9588861402       21.2952198957       -5.8542441141  MEMB      179             0.0000000000
     22253       179  DOPE      H12X          -33.8708362006       20.4601329080       -6.5817038664  MEMB      179             0.0000000000
     22254       179  DOPE      H12Y          -35.0042382733       21.6642095629       -5.9277699704  MEMB      179             0.0000000000
     22255       179  DOPE      C313          -33.7847089798       20.6792220967       -4.4264703001  MEMB      179             0.0000000000
     22256       179  DOPE      H13X          -34.5504665748       19.8774104847       -4.3555164327  MEMB      179             0.0000000000
     22257       179  DOPE      H13Y          -32.7921977388       20.1957555890       -4.3019622265  MEMB      179             0.0000000000
     22258       179  DOPE      C314          -33.9162746260       21.6486152943       -3.2133113139  MEMB      179             0.0000000000
     22259       179  DOPE      H14X          -34.8060769999       22.3101927715       -3.2832228190  MEMB      179             0.0000000000
     22260       179  DOPE      H14Y          -32.9968670982       22.2634445274       -3.3181722752  MEMB      179             0.0000000000
     22261       179  DOPE      C315          -34.0742307824       20.9015172629       -1.8610724737  MEMB      179             0.0000000000
     22262       179  DOPE      H15X          -34.7033408215       19.9875241437       -1.9172678870  MEMB      179             0.0000000000
     22263       179  DOPE      H15Y          -34.6341896844       21.6823146612       -1.3032876299  MEMB      179             0.0000000000
     22264       179  DOPE      C316          -32.7625114612       20.4468196976       -1.1588624515  MEMB      179             0.0000000000
     22265       179  DOPE      H16X          -32.1515639704       21.3256018476       -0.8608573185  MEMB      179             0.0000000000
     22266       179  DOPE      H16Y          -32.2589511367       19.7813724858       -1.8922980190  MEMB      179             0.0000000000
     22267       179  DOPE      C317          -33.1109207529       19.6813728123        0.1563131810  MEMB      179             0.0000000000
     22268       179  DOPE      H17X          -33.6208886378       20.2537225810        0.9604722586  MEMB      179             0.0000000000
     22269       179  DOPE      H17Y          -33.8171699211       18.8760728979       -0.1386861913  MEMB      179             0.0000000000
     22270       179  DOPE      C318          -31.7997237496       19.1812019703        0.7809069874  MEMB      179             0.0000000000
     22271       179  DOPE      H18X          -31.3641526873       19.9776517639        1.4214290410  MEMB      179             0.0000000000
     22272       179  DOPE      H18Y          -32.0427457422       18.3750299985        1.5057161052  MEMB      179             0.0000000000
     22273       179  DOPE      H18Z          -30.9866858597       18.7888188536        0.1333545397  MEMB      179             0.0000000000
     22274       180  DOPE      N             -29.7202411021       25.4682889162      -21.1682305897  MEMB      180             0.0000000000
     22275       180  DOPE      HN1           -30.3805982986       26.2711040379      -21.2001084365  MEMB      180             0.0000000000
     22276       180  DOPE      HN2           -28.7468824841       25.6917333841      -21.4584820666  MEMB      180             0.0000000000
     22277       180  DOPE      HN3           -30.0869071125       24.7173644496      -21.7873172872  MEMB      180             0.0000000000
     22278       180  DOPE      C12           -29.5900874823       25.1132778291      -19.7395477079  MEMB      180             0.0000000000
     22279       180  DOPE      H12A          -28.8074211939       24.3253164523      -19.7100298557  MEMB      180             0.0000000000
     22280       180  DOPE      H12B          -30.6003176464       24.7668910809      -19.4333251417  MEMB      180             0.0000000000
     22281       180  DOPE      C11           -29.3241877613       26.3639560189      -18.7992036342  MEMB      180             0.0000000000
     22282       180  DOPE      H11A          -29.3228290700       26.0489725585      -17.7337907428  MEMB      180             0.0000000000
     22283       180  DOPE      H11B          -30.2760431266       26.9307964084      -18.8827758513  MEMB      180             0.0000000000
     22284       180  DOPE      P             -27.8949868797       28.4060866730      -18.4288461942  MEMB      180             0.0000000000
     22285       180  DOPE      O13           -26.7740094667       29.0723237689      -19.0733554468  MEMB      180             0.0000000000
     22286       180  DOPE      O14           -27.8034864847       28.2098610018      -16.9461810040  MEMB      180             0.0000000000
     22287       180  DOPE      O11           -29.2340585166       29.2150143145      -18.6998140646  MEMB      180             0.0000000000
     22288       180  DOPE      O12           -28.1461695112       27.1065410526      -19.1448213813  MEMB      180             0.0000000000
     22289       180  DOPE      C1            -29.6352967622       29.5690837255      -20.0156156889  MEMB      180             0.0000000000
     22290       180  DOPE      HA            -29.8046323380       28.6898928362      -20.6733921872  MEMB      180             0.0000000000
     22291       180  DOPE      HB            -28.7913253571       30.0866601107      -20.5197466506  MEMB      180             0.0000000000
     22292       180  DOPE      C2            -30.8872026936       30.5509613784      -20.0451599350  MEMB      180             0.0000000000
     22293       180  DOPE      HS            -30.6992310152       31.3133774119      -20.8311049173  MEMB      180             0.0000000000
     22294       180  DOPE      O21           -31.1994524896       31.2103646124      -18.8037358504  MEMB      180             0.0000000000
     22295       180  DOPE      C21           -30.2452594173       31.9177382534      -18.3150117756  MEMB      180             0.0000000000
     22296       180  DOPE      O22           -29.3787441639       32.5096354824      -18.9371854888  MEMB      180             0.0000000000
     22297       180  DOPE      C22           -30.1864659081       31.8809367326      -16.7665046231  MEMB      180             0.0000000000
     22298       180  DOPE      H2R           -29.9085286984       30.8518467842      -16.4533824993  MEMB      180             0.0000000000
     22299       180  DOPE      H2S           -31.1188467862       32.2527617943      -16.2903392439  MEMB      180             0.0000000000
     22300       180  DOPE      C3            -32.1007033367       29.6984080546      -20.3908106298  MEMB      180             0.0000000000
     22301       180  DOPE      HX            -31.9549386541       29.2868415454      -21.4124205053  MEMB      180             0.0000000000
     22302       180  DOPE      HY            -33.0215247350       30.3197077860      -20.4107181649  MEMB      180             0.0000000000
     22303       180  DOPE      O31           -32.2827294664       28.5588650242      -19.5382992131  MEMB      180             0.0000000000
     22304       180  DOPE      C31           -33.0523396214       28.7535101652      -18.4099845116  MEMB      180             0.0000000000
     22305       180  DOPE      O32           -33.6982100293       29.7239258296      -18.0651479217  MEMB      180             0.0000000000
     22306       180  DOPE      C32           -33.0874268635       27.4876817814      -17.6044985587  MEMB      180             0.0000000000
     22307       180  DOPE      H2X           -34.1188090794       27.1034120750      -17.7558547985  MEMB      180             0.0000000000
     22308       180  DOPE      H2Y           -32.3992259449       26.7197812560      -18.0180553836  MEMB      180             0.0000000000
     22309       180  DOPE      C23           -28.9775650736       32.7718991890      -16.3833238133  MEMB      180             0.0000000000
     22310       180  DOPE      H3R           -29.1266620143       33.8095759794      -16.7511791911  MEMB      180             0.0000000000
     22311       180  DOPE      H3S           -28.1022266634       32.4145445162      -16.9667631736  MEMB      180             0.0000000000
     22312       180  DOPE      C24           -28.6556708643       32.9161669839      -14.8228761528  MEMB      180             0.0000000000
     22313       180  DOPE      H4R           -29.3574462124       33.5819312134      -14.2764420619  MEMB      180             0.0000000000
     22314       180  DOPE      H4S           -27.6667972291       33.4225752138      -14.8220584243  MEMB      180             0.0000000000
     22315       180  DOPE      C25           -28.4201850531       31.6341386247      -14.0250195525  MEMB      180             0.0000000000
     22316       180  DOPE      H5R           -27.7823582745       31.8978954071      -13.1544278143  MEMB      180             0.0000000000
     22317       180  DOPE      H5S           -27.8062390925       30.8521764845      -14.5209298611  MEMB      180             0.0000000000
     22318       180  DOPE      C26           -29.5999758802       31.0364212925      -13.2138505218  MEMB      180             0.0000000000
     22319       180  DOPE      H6R           -29.2678181338       30.0157178325      -12.9272204952  MEMB      180             0.0000000000
     22320       180  DOPE      H6S           -30.3943869333       30.9330988739      -13.9836275425  MEMB      180             0.0000000000
     22321       180  DOPE      C27           -30.0642472162       31.8622920802      -12.0435056067  MEMB      180             0.0000000000
     22322       180  DOPE      H7R           -29.9625746684       32.9110702078      -12.3957106388  MEMB      180             0.0000000000
     22323       180  DOPE      H7S           -29.2699556521       31.7313308020      -11.2778219098  MEMB      180             0.0000000000
     22324       180  DOPE      C28           -31.5609614144       31.6746810505      -11.6512212168  MEMB      180             0.0000000000
     22325       180  DOPE      H8R           -32.1628792531       31.8140581266      -12.5745789853  MEMB      180             0.0000000000
     22326       180  DOPE      H8S           -31.8885109563       32.5584818335      -11.0630643858  MEMB      180             0.0000000000
     22327       180  DOPE      C29           -31.8282097530       30.4405677743      -10.8550040036  MEMB      180             0.0000000000
     22328       180  DOPE      H9R           -32.4441758798       29.6530955910      -11.3137776467  MEMB      180             0.0000000000
     22329       180  DOPE      C210          -31.3778442582       30.1726248128       -9.6548503239  MEMB      180             0.0000000000
     22330       180  DOPE      H10R          -31.8195233810       29.3013457310       -9.1490915684  MEMB      180             0.0000000000
     22331       180  DOPE      C211          -30.5729383073       31.1101361665       -8.8427232523  MEMB      180             0.0000000000
     22332       180  DOPE      H11R          -30.9467929827       32.1535429202       -8.9192506125  MEMB      180             0.0000000000
     22333       180  DOPE      H11S          -29.5546409049       31.1930381845       -9.2792069987  MEMB      180             0.0000000000
     22334       180  DOPE      C212          -30.4009145964       30.7036797041       -7.3801255601  MEMB      180             0.0000000000
     22335       180  DOPE      H12R          -29.9296742356       29.6979228780       -7.4067041927  MEMB      180             0.0000000000
     22336       180  DOPE      H12S          -31.3792341920       30.5493998829       -6.8767276149  MEMB      180             0.0000000000
     22337       180  DOPE      C213          -29.3923694339       31.5676581690       -6.6450811094  MEMB      180             0.0000000000
     22338       180  DOPE      H13R          -28.4512830483       31.5759969893       -7.2355111902  MEMB      180             0.0000000000
     22339       180  DOPE      H13S          -29.1178725336       31.0221187631       -5.7169867129  MEMB      180             0.0000000000
     22340       180  DOPE      C214          -29.7250965195       33.0662401085       -6.4664056474  MEMB      180             0.0000000000
     22341       180  DOPE      H14R          -30.8248439106       33.1289163366       -6.3216693727  MEMB      180             0.0000000000
     22342       180  DOPE      H14S          -29.6389787926       33.6609207458       -7.4008891519  MEMB      180             0.0000000000
     22343       180  DOPE      C215          -28.7222655240       33.7603303954       -5.4763607322  MEMB      180             0.0000000000
     22344       180  DOPE      H15R          -27.7268726768       33.8660489174       -5.9583753387  MEMB      180             0.0000000000
     22345       180  DOPE      H15S          -28.5249660211       33.1737043417       -4.5537215474  MEMB      180             0.0000000000
     22346       180  DOPE      C216          -29.1427886347       35.1261619044       -4.9690850397  MEMB      180             0.0000000000
     22347       180  DOPE      H16R          -29.2845853379       35.6879596735       -5.9170289513  MEMB      180             0.0000000000
     22348       180  DOPE      H16S          -28.4532054822       35.6133570837       -4.2469781879  MEMB      180             0.0000000000
     22349       180  DOPE      C217          -30.5094640403       35.1683677540       -4.2562540411  MEMB      180             0.0000000000
     22350       180  DOPE      H17R          -31.2249904740       34.8517626802       -5.0449890953  MEMB      180             0.0000000000
     22351       180  DOPE      H17S          -30.5991580425       36.2403335444       -3.9784657801  MEMB      180             0.0000000000
     22352       180  DOPE      C218          -30.7934515228       34.1739358157       -3.1154275938  MEMB      180             0.0000000000
     22353       180  DOPE      H18R          -30.8262592275       33.1646082058       -3.5785720788  MEMB      180             0.0000000000
     22354       180  DOPE      H18S          -31.7472327648       34.4157317294       -2.5995239451  MEMB      180             0.0000000000
     22355       180  DOPE      H18T          -30.0722905740       34.1643992408       -2.2703483370  MEMB      180             0.0000000000
     22356       180  DOPE      C33           -32.8354301306       27.8003182809      -16.1306651139  MEMB      180             0.0000000000
     22357       180  DOPE      H3X           -32.9471929882       26.8192760821      -15.6213650681  MEMB      180             0.0000000000
     22358       180  DOPE      H3Y           -33.5184379624       28.5850517563      -15.7407749273  MEMB      180             0.0000000000
     22359       180  DOPE      C34           -31.3391638177       28.1891932177      -15.7853926891  MEMB      180             0.0000000000
     22360       180  DOPE      H4X           -30.6049452233       27.6492689720      -16.4207868711  MEMB      180             0.0000000000
     22361       180  DOPE      H4Y           -31.3311777259       29.2924766881      -15.9158647592  MEMB      180             0.0000000000
     22362       180  DOPE      C35           -30.8942834210       27.8775126370      -14.3800000940  MEMB      180             0.0000000000
     22363       180  DOPE      H5X           -31.6313809221       28.2721496854      -13.6483789830  MEMB      180             0.0000000000
     22364       180  DOPE      H5Y           -30.0014447533       28.4794598691      -14.1064689920  MEMB      180             0.0000000000
     22365       180  DOPE      C36           -30.4526001593       26.4678611545      -14.0816663774  MEMB      180             0.0000000000
     22366       180  DOPE      H6X           -31.2187395435       25.8241327913      -14.5643309076  MEMB      180             0.0000000000
     22367       180  DOPE      H6Y           -30.6194797426       26.2721267747      -13.0008514199  MEMB      180             0.0000000000
     22368       180  DOPE      C37           -29.0411863694       26.2049589285      -14.5557010189  MEMB      180             0.0000000000
     22369       180  DOPE      H7X           -28.9328163469       25.1005608436      -14.5020185705  MEMB      180             0.0000000000
     22370       180  DOPE      H7Y           -29.0124504332       26.5164862772      -15.6217431396  MEMB      180             0.0000000000
     22371       180  DOPE      C38           -27.9511315760       26.7236566633      -13.6143641546  MEMB      180             0.0000000000
     22372       180  DOPE      H8X           -28.0549681392       27.8000101903      -13.3594087681  MEMB      180             0.0000000000
     22373       180  DOPE      H8Y           -26.9338283530       26.6569854268      -14.0559185490  MEMB      180             0.0000000000
     22374       180  DOPE      C39           -27.8707019833       25.8672955693      -12.3869560447  MEMB      180             0.0000000000
     22375       180  DOPE      H9X           -27.8526678330       24.7840607957      -12.5774215323  MEMB      180             0.0000000000
     22376       180  DOPE      C310          -27.9755786796       26.1105900226      -11.0450134582  MEMB      180             0.0000000000
     22377       180  DOPE      H10X          -27.8243693719       25.2526051567      -10.3734500077  MEMB      180             0.0000000000
     22378       180  DOPE      C311          -28.2666442042       27.4018849832      -10.4189254326  MEMB      180             0.0000000000
     22379       180  DOPE      H11X          -28.5163510899       28.1718916449      -11.1798833715  MEMB      180             0.0000000000
     22380       180  DOPE      H11Y          -29.2366982578       27.2968386163       -9.8876234496  MEMB      180             0.0000000000
     22381       180  DOPE      C312          -27.2341952936       28.1835436918       -9.5461868871  MEMB      180             0.0000000000
     22382       180  DOPE      H12X          -27.5506899596       29.2414244805       -9.4235477543  MEMB      180             0.0000000000
     22383       180  DOPE      H12Y          -26.3453528935       28.3019318501      -10.2021320187  MEMB      180             0.0000000000
     22384       180  DOPE      C313          -26.8339868243       27.6051463636       -8.1945612953  MEMB      180             0.0000000000
     22385       180  DOPE      H13X          -27.6341439318       27.4513042512       -7.4393118884  MEMB      180             0.0000000000
     22386       180  DOPE      H13Y          -26.2894785045       26.6399104748       -8.2729918406  MEMB      180             0.0000000000
     22387       180  DOPE      C314          -25.9143445212       28.5864222540       -7.4800937202  MEMB      180             0.0000000000
     22388       180  DOPE      H14X          -26.2653520239       29.6306503088       -7.6239778410  MEMB      180             0.0000000000
     22389       180  DOPE      H14Y          -24.8729005310       28.4656803411       -7.8477032474  MEMB      180             0.0000000000
     22390       180  DOPE      C315          -25.9668614082       28.3978067064       -5.9059252335  MEMB      180             0.0000000000
     22391       180  DOPE      H15X          -25.0709007889       28.9486875169       -5.5480063417  MEMB      180             0.0000000000
     22392       180  DOPE      H15Y          -25.8436829530       27.2969584375       -5.8205967138  MEMB      180             0.0000000000
     22393       180  DOPE      C316          -27.1367999521       28.9362353034       -5.0416768944  MEMB      180             0.0000000000
     22394       180  DOPE      H16X          -27.9974203383       28.3097770684       -5.3598022260  MEMB      180             0.0000000000
     22395       180  DOPE      H16Y          -27.2790030705       29.9703690809       -5.4220275439  MEMB      180             0.0000000000
     22396       180  DOPE      C317          -26.8873092227       29.1024369551       -3.5830801279  MEMB      180             0.0000000000
     22397       180  DOPE      H17X          -26.2180787375       29.9750164021       -3.4247876568  MEMB      180             0.0000000000
     22398       180  DOPE      H17Y          -27.8121614053       29.4142870310       -3.0523089887  MEMB      180             0.0000000000
     22399       180  DOPE      C318          -26.3674462686       27.9036010341       -2.9222589184  MEMB      180             0.0000000000
     22400       180  DOPE      H18X          -26.4096089881       27.8594761646       -1.8129361655  MEMB      180             0.0000000000
     22401       180  DOPE      H18Y          -26.9694921478       27.0561845259       -3.3143649364  MEMB      180             0.0000000000
     22402       180  DOPE      H18Z          -25.3043236101       27.8148501712       -3.2324435696  MEMB      180             0.0000000000
     22403       181  DOPC      N             -38.2846233654       12.7909468434      -20.8464164758  MEMB      181             0.0000000000
     22404       181  DOPC      C12           -37.6788941584       12.2673037977      -19.5575452868  MEMB      181             0.0000000000
     22405       181  DOPC      H12A          -37.2499595507       11.2968625800      -19.7591866262  MEMB      181             0.0000000000
     22406       181  DOPC      H12B          -38.5047880182       12.2102728099      -18.8639699750  MEMB      181             0.0000000000
     22407       181  DOPC      C13           -39.3112018208       13.8038514349      -20.5541579507  MEMB      181             0.0000000000
     22408       181  DOPC      H13A          -38.7742487387       14.7014992292      -20.2852530917  MEMB      181             0.0000000000
     22409       181  DOPC      H13B          -39.9491071519       14.0006387147      -21.4031287811  MEMB      181             0.0000000000
     22410       181  DOPC      H13C          -39.9904930036       13.5786751265      -19.7452950059  MEMB      181             0.0000000000
     22411       181  DOPC      C14           -38.9637964647       11.6766992207      -21.5991714487  MEMB      181             0.0000000000
     22412       181  DOPC      H14A          -39.3945382980       12.0842250068      -22.5018254133  MEMB      181             0.0000000000
     22413       181  DOPC      H14B          -38.1904593709       10.9474839071      -21.7904686494  MEMB      181             0.0000000000
     22414       181  DOPC      H14C          -39.7638347842       11.3554701311      -20.9486713009  MEMB      181             0.0000000000
     22415       181  DOPC      C15           -37.2609547421       13.5482481517      -21.6170990157  MEMB      181             0.0000000000
     22416       181  DOPC      H15A          -36.4970831894       12.8856788413      -21.9964433428  MEMB      181             0.0000000000
     22417       181  DOPC      H15B          -36.7005577436       14.3218453015      -21.1132115047  MEMB      181             0.0000000000
     22418       181  DOPC      H15C          -37.7094479869       13.9609081693      -22.5087072300  MEMB      181             0.0000000000
     22419       181  DOPC      C11           -36.5819511159       13.0981762058      -18.8406139448  MEMB      181             0.0000000000
     22420       181  DOPC      H11A          -36.2166243376       12.5745064617      -17.9314234816  MEMB      181             0.0000000000
     22421       181  DOPC      H11B          -35.6787839732       13.1114679771      -19.4874783405  MEMB      181             0.0000000000
     22422       181  DOPC      P             -36.7481410328       15.0989631802      -17.1606866606  MEMB      181             0.0000000000
     22423       181  DOPC      O13           -35.9084665477       16.2496718806      -17.4162630435  MEMB      181             0.0000000000
     22424       181  DOPC      O14           -36.2981938212       14.1542870614      -16.1652146087  MEMB      181             0.0000000000
     22425       181  DOPC      O12           -37.0167373956       14.3593385848      -18.5088126461  MEMB      181             0.0000000000
     22426       181  DOPC      O11           -38.2095990366       15.5691272410      -16.7340189186  MEMB      181             0.0000000000
     22427       181  DOPC      C1            -39.3732527793       14.7513855814      -16.5157398257  MEMB      181             0.0000000000
     22428       181  DOPC      HA            -39.2547743818       13.8571799691      -17.1643384641  MEMB      181             0.0000000000
     22429       181  DOPC      HB            -40.2085698951       15.2404075414      -17.0611058916  MEMB      181             0.0000000000
     22430       181  DOPC      C2            -39.5989867965       14.4656114381      -15.0162165375  MEMB      181             0.0000000000
     22431       181  DOPC      HS            -40.5458405557       14.9065710131      -14.6376093966  MEMB      181             0.0000000000
     22432       181  DOPC      O21           -38.5312622262       14.9175539479      -14.2546004369  MEMB      181             0.0000000000
     22433       181  DOPC      C21           -38.4704429271       16.2460442664      -13.9973968168  MEMB      181             0.0000000000
     22434       181  DOPC      O22           -39.2710348388       17.0489267531      -14.4191553801  MEMB      181             0.0000000000
     22435       181  DOPC      C22           -37.0999894181       16.6173484852      -13.4465389240  MEMB      181             0.0000000000
     22436       181  DOPC      H2R           -36.2534621328       16.5326868612      -14.1610635035  MEMB      181             0.0000000000
     22437       181  DOPC      H2S           -36.8711968664       15.9091517995      -12.6216557514  MEMB      181             0.0000000000
     22438       181  DOPC      C3            -39.8764303125       12.9609896473      -14.6312402639  MEMB      181             0.0000000000
     22439       181  DOPC      HX            -39.1526287217       12.3134474422      -15.1707968750  MEMB      181             0.0000000000
     22440       181  DOPC      HY            -40.8542682162       12.7723658142      -15.1237594269  MEMB      181             0.0000000000
     22441       181  DOPC      O31           -40.1640256757       12.6429004986      -13.2558510822  MEMB      181             0.0000000000
     22442       181  DOPC      C31           -39.1760665757       11.9624613233      -12.7168012842  MEMB      181             0.0000000000
     22443       181  DOPC      O32           -38.1359333222       11.5188313971      -13.1149365824  MEMB      181             0.0000000000
     22444       181  DOPC      C32           -39.4975011472       11.6863438943      -11.2353373149  MEMB      181             0.0000000000
     22445       181  DOPC      H2X           -40.3859120053       12.3102682745      -10.9991898396  MEMB      181             0.0000000000
     22446       181  DOPC      H2Y           -39.8945409480       10.6505651370      -11.1733464266  MEMB      181             0.0000000000
     22447       181  DOPC      C23           -37.1293418713       18.0392409731      -12.9489782896  MEMB      181             0.0000000000
     22448       181  DOPC      H3R           -37.9858193616       18.2835758343      -12.2848491089  MEMB      181             0.0000000000
     22449       181  DOPC      H3S           -37.1626056279       18.7559989784      -13.7971954250  MEMB      181             0.0000000000
     22450       181  DOPC      C24           -35.8189658640       18.4013279390      -12.2045138614  MEMB      181             0.0000000000
     22451       181  DOPC      H4R           -35.9808990307       19.4268748161      -11.8090991967  MEMB      181             0.0000000000
     22452       181  DOPC      H4S           -35.0194734340       18.4965735893      -12.9700603094  MEMB      181             0.0000000000
     22453       181  DOPC      C25           -35.4282703420       17.5025661596      -11.0082275626  MEMB      181             0.0000000000
     22454       181  DOPC      H5R           -34.4683545962       17.8580157377      -10.5763268996  MEMB      181             0.0000000000
     22455       181  DOPC      H5S           -35.2134992324       16.4867046916      -11.4034745183  MEMB      181             0.0000000000
     22456       181  DOPC      C26           -36.4461694346       17.1710479341       -9.9304989026  MEMB      181             0.0000000000
     22457       181  DOPC      H6R           -37.3750712769       16.7666741925      -10.3865083348  MEMB      181             0.0000000000
     22458       181  DOPC      H6S           -36.8014050268       18.1436174672       -9.5277116751  MEMB      181             0.0000000000
     22459       181  DOPC      C27           -35.9726445572       16.2093507093       -8.8637490440  MEMB      181             0.0000000000
     22460       181  DOPC      H7R           -35.2885238148       16.7634221117       -8.1860285543  MEMB      181             0.0000000000
     22461       181  DOPC      H7S           -35.3736976951       15.4178826271       -9.3629098150  MEMB      181             0.0000000000
     22462       181  DOPC      C28           -37.1255662465       15.4971941997       -8.0044973172  MEMB      181             0.0000000000
     22463       181  DOPC      H8R           -36.8054417642       14.7272880783       -7.2702720927  MEMB      181             0.0000000000
     22464       181  DOPC      H8S           -37.5579933198       14.8985616621       -8.8345378930  MEMB      181             0.0000000000
     22465       181  DOPC      C29           -38.0260707411       16.4607722832       -7.3151292541  MEMB      181             0.0000000000
     22466       181  DOPC      H9R           -37.7840465304       17.5334415380       -7.2867622876  MEMB      181             0.0000000000
     22467       181  DOPC      C210          -39.1430051594       16.0656062780       -6.6432098224  MEMB      181             0.0000000000
     22468       181  DOPC      H10R          -39.7281850805       16.8587628053       -6.1548783589  MEMB      181             0.0000000000
     22469       181  DOPC      C211          -39.6905827257       14.6836338482       -6.4353233425  MEMB      181             0.0000000000
     22470       181  DOPC      H11R          -39.6312472245       14.3347331974       -5.3821998289  MEMB      181             0.0000000000
     22471       181  DOPC      H11S          -39.0489567512       13.9192966870       -6.9236122243  MEMB      181             0.0000000000
     22472       181  DOPC      C212          -41.1215492439       14.5681776666       -6.9565425725  MEMB      181             0.0000000000
     22473       181  DOPC      H12R          -41.2430958360       15.2465199396       -7.8279778413  MEMB      181             0.0000000000
     22474       181  DOPC      H12S          -41.8087926873       14.8920182829       -6.1458976079  MEMB      181             0.0000000000
     22475       181  DOPC      C213          -41.4614398409       13.2115229391       -7.5225650396  MEMB      181             0.0000000000
     22476       181  DOPC      H13R          -40.7982996542       12.9811188666       -8.3836576361  MEMB      181             0.0000000000
     22477       181  DOPC      H13S          -42.4610845412       13.2516039338       -8.0057066922  MEMB      181             0.0000000000
     22478       181  DOPC      C214          -41.2866956584       12.0668819270       -6.5023879507  MEMB      181             0.0000000000
     22479       181  DOPC      H14R          -40.1868338677       12.0018909878       -6.3595547575  MEMB      181             0.0000000000
     22480       181  DOPC      H14S          -41.6813437922       11.1903765455       -7.0594449772  MEMB      181             0.0000000000
     22481       181  DOPC      C215          -42.1016580410       12.2189236856       -5.1197569041  MEMB      181             0.0000000000
     22482       181  DOPC      H15R          -43.1707844875       12.3053853399       -5.4092634751  MEMB      181             0.0000000000
     22483       181  DOPC      H15S          -41.8861217996       13.2371879765       -4.7311660028  MEMB      181             0.0000000000
     22484       181  DOPC      C216          -41.9145054598       11.0701625430       -4.1133541103  MEMB      181             0.0000000000
     22485       181  DOPC      H16R          -40.8653398127       10.7275671593       -4.2406356752  MEMB      181             0.0000000000
     22486       181  DOPC      H16S          -42.5866948601       10.1997052981       -4.2707921018  MEMB      181             0.0000000000
     22487       181  DOPC      C217          -42.2936121661       11.4800206918       -2.6700654215  MEMB      181             0.0000000000
     22488       181  DOPC      H17R          -43.3557653636       11.7784804857       -2.8007294361  MEMB      181             0.0000000000
     22489       181  DOPC      H17S          -41.7853902423       12.4262843404       -2.3861350596  MEMB      181             0.0000000000
     22490       181  DOPC      C218          -42.0779765607       10.4926110966       -1.5448615394  MEMB      181             0.0000000000
     22491       181  DOPC      H18R          -42.3315164764       11.0555533382       -0.6212087157  MEMB      181             0.0000000000
     22492       181  DOPC      H18S          -41.0211190461       10.1502248177       -1.5568774141  MEMB      181             0.0000000000
     22493       181  DOPC      H18T          -42.6476696870        9.5440360855       -1.6447427578  MEMB      181             0.0000000000
     22494       181  DOPC      C33           -38.1983327742       11.9812602402      -10.3743879611  MEMB      181             0.0000000000
     22495       181  DOPC      H3X           -38.4866588072       12.4822481394       -9.4255991603  MEMB      181             0.0000000000
     22496       181  DOPC      H3Y           -37.6074448685       12.7940399750      -10.8482679256  MEMB      181             0.0000000000
     22497       181  DOPC      C34           -37.2951316051       10.7703960691      -10.1744799168  MEMB      181             0.0000000000
     22498       181  DOPC      H4X           -36.6114987987       10.8134661227      -11.0491868059  MEMB      181             0.0000000000
     22499       181  DOPC      H4Y           -37.8393281067        9.8128683884      -10.3204668889  MEMB      181             0.0000000000
     22500       181  DOPC      C35           -36.4436170540       10.8359236700       -8.8778383630  MEMB      181             0.0000000000
     22501       181  DOPC      H5X           -37.1428587558       10.8329211621       -8.0144889883  MEMB      181             0.0000000000
     22502       181  DOPC      H5Y           -35.8925123730       11.7998150668       -8.9168001756  MEMB      181             0.0000000000
     22503       181  DOPC      C36           -35.4087038218        9.6525086083       -8.8515255244  MEMB      181             0.0000000000
     22504       181  DOPC      H6X           -34.6764522815        9.7748217503       -9.6780657356  MEMB      181             0.0000000000
     22505       181  DOPC      H6Y           -34.8548881367        9.7981582203       -7.8994776555  MEMB      181             0.0000000000
     22506       181  DOPC      C37           -35.9350595531        8.2141841021       -9.0715029054  MEMB      181             0.0000000000
     22507       181  DOPC      H7X           -36.1458925943        8.0067015277      -10.1424003324  MEMB      181             0.0000000000
     22508       181  DOPC      H7Y           -35.1612192629        7.5083503300       -8.7009746145  MEMB      181             0.0000000000
     22509       181  DOPC      C38           -37.1660638199        7.8567040566       -8.1418130649  MEMB      181             0.0000000000
     22510       181  DOPC      H8X           -37.6543080530        6.9247435718       -8.4987273549  MEMB      181             0.0000000000
     22511       181  DOPC      H8Y           -37.9524380902        8.6354194734       -8.2394805052  MEMB      181             0.0000000000
     22512       181  DOPC      C39           -36.8237028078        7.6526005804       -6.6520208923  MEMB      181             0.0000000000
     22513       181  DOPC      H9X           -36.2594466604        6.7213144844       -6.4960672253  MEMB      181             0.0000000000
     22514       181  DOPC      C310          -37.1557859581        8.3939042561       -5.5519171572  MEMB      181             0.0000000000
     22515       181  DOPC      H10X          -36.8336245453        8.1282520564       -4.5342528677  MEMB      181             0.0000000000
     22516       181  DOPC      C311          -37.9639814500        9.6101231537       -5.5774445634  MEMB      181             0.0000000000
     22517       181  DOPC      H11X          -38.8137665334        9.2768114327       -4.9441282576  MEMB      181             0.0000000000
     22518       181  DOPC      H11Y          -38.4749257254        9.9096157706       -6.5174237189  MEMB      181             0.0000000000
     22519       181  DOPC      C312          -37.6369894337       10.8658600031       -4.6941784120  MEMB      181             0.0000000000
     22520       181  DOPC      H12X          -37.3848094267       10.6654842205       -3.6308933081  MEMB      181             0.0000000000
     22521       181  DOPC      H12Y          -38.5554922712       11.4907919518       -4.7057357803  MEMB      181             0.0000000000
     22522       181  DOPC      C313          -36.5277970185       11.7517928908       -5.2098419397  MEMB      181             0.0000000000
     22523       181  DOPC      H13X          -35.4787841447       11.3877498404       -5.1728851356  MEMB      181             0.0000000000
     22524       181  DOPC      H13Y          -36.7187154943       11.9872927499       -6.2786780458  MEMB      181             0.0000000000
     22525       181  DOPC      C314          -36.5060940953       13.1350100977       -4.6395549922  MEMB      181             0.0000000000
     22526       181  DOPC      H14X          -37.4232165457       13.6714499233       -4.9642700207  MEMB      181             0.0000000000
     22527       181  DOPC      H14Y          -36.5900888645       12.9771430536       -3.5430408786  MEMB      181             0.0000000000
     22528       181  DOPC      C315          -35.2562780026       13.9061500687       -4.9983540419  MEMB      181             0.0000000000
     22529       181  DOPC      H15X          -34.9416257851       13.7185730607       -6.0472245544  MEMB      181             0.0000000000
     22530       181  DOPC      H15Y          -34.4583959090       13.3921729321       -4.4208307223  MEMB      181             0.0000000000
     22531       181  DOPC      C316          -35.1675505682       15.4181846667       -4.7487513196  MEMB      181             0.0000000000
     22532       181  DOPC      H16X          -34.1382968575       15.7992363359       -4.9212554008  MEMB      181             0.0000000000
     22533       181  DOPC      H16Y          -35.8375207844       15.8850613716       -5.5020688661  MEMB      181             0.0000000000
     22534       181  DOPC      C317          -35.6060669584       15.8151793135       -3.2536045665  MEMB      181             0.0000000000
     22535       181  DOPC      H17X          -36.0030580569       16.8339646839       -3.4505715101  MEMB      181             0.0000000000
     22536       181  DOPC      H17Y          -36.4760824009       15.1625821355       -3.0266453430  MEMB      181             0.0000000000
     22537       181  DOPC      C318          -34.5824851466       15.6691022876       -2.1242948602  MEMB      181             0.0000000000
     22538       181  DOPC      H18X          -34.9245442571       16.2925417805       -1.2706900523  MEMB      181             0.0000000000
     22539       181  DOPC      H18Y          -34.3521544084       14.6170717680       -1.8513458242  MEMB      181             0.0000000000
     22540       181  DOPC      H18Z          -33.5935163059       16.0600434820       -2.4458943038  MEMB      181             0.0000000000
     22541       182  DOPC      N              35.1793378357      -21.9192110622      -20.1612565184  MEMB      182             0.0000000000
     22542       182  DOPC      C12            34.4432130590      -22.1345751777      -18.8098422782  MEMB      182             0.0000000000
     22543       182  DOPC      H12A           34.6258996550      -23.1470534195      -18.4813399542  MEMB      182             0.0000000000
     22544       182  DOPC      H12B           33.3709845990      -22.1310053320      -18.9391222716  MEMB      182             0.0000000000
     22545       182  DOPC      C13            34.8354730170      -23.1222179282      -21.0354086309  MEMB      182             0.0000000000
     22546       182  DOPC      H13A           35.1839356103      -22.8934512441      -22.0317213912  MEMB      182             0.0000000000
     22547       182  DOPC      H13B           35.2289462795      -24.0383688460      -20.6203830793  MEMB      182             0.0000000000
     22548       182  DOPC      H13C           33.7594114383      -23.2056437276      -21.0745454165  MEMB      182             0.0000000000
     22549       182  DOPC      C14            36.6403476171      -21.8512582008      -19.9105394028  MEMB      182             0.0000000000
     22550       182  DOPC      H14A           36.8121974145      -21.1089805493      -19.1451041002  MEMB      182             0.0000000000
     22551       182  DOPC      H14B           37.0320848106      -22.7724853078      -19.5052215914  MEMB      182             0.0000000000
     22552       182  DOPC      H14C           37.0384860039      -21.7035887971      -20.9035548444  MEMB      182             0.0000000000
     22553       182  DOPC      C15            34.6785855462      -20.7418610745      -21.0127945344  MEMB      182             0.0000000000
     22554       182  DOPC      H15A           35.2363485493      -20.8735011095      -21.9282022639  MEMB      182             0.0000000000
     22555       182  DOPC      H15B           34.6646580546      -19.7991670429      -20.4859794545  MEMB      182             0.0000000000
     22556       182  DOPC      H15C           33.6665138253      -21.0204596174      -21.2667506058  MEMB      182             0.0000000000
     22557       182  DOPC      C11            34.8349776581      -21.1721499178      -17.6807557933  MEMB      182             0.0000000000
     22558       182  DOPC      H11A           34.2910653522      -21.4111795714      -16.7419559373  MEMB      182             0.0000000000
     22559       182  DOPC      H11B           35.9302876857      -21.2595625560      -17.5165125956  MEMB      182             0.0000000000
     22560       182  DOPC      P              33.3581281908      -18.9961932604      -18.1374088517  MEMB      182             0.0000000000
     22561       182  DOPC      O13            32.2725165715      -19.9790138301      -18.2740801244  MEMB      182             0.0000000000
     22562       182  DOPC      O14            33.6411954742      -18.0429445062      -19.2718869623  MEMB      182             0.0000000000
     22563       182  DOPC      O12            34.7230130413      -19.7582766490      -17.9134509225  MEMB      182             0.0000000000
     22564       182  DOPC      O11            33.2551755883      -18.1806622919      -16.7925759810  MEMB      182             0.0000000000
     22565       182  DOPC      C1             32.1154728107      -17.8189528212      -16.1456572929  MEMB      182             0.0000000000
     22566       182  DOPC      HA             31.2421276161      -18.0020261369      -16.8075284678  MEMB      182             0.0000000000
     22567       182  DOPC      HB             32.2537196266      -16.7284373271      -15.9844591497  MEMB      182             0.0000000000
     22568       182  DOPC      C2             31.7601230569      -18.5509191723      -14.8350386485  MEMB      182             0.0000000000
     22569       182  DOPC      HS             32.5707991079      -18.2915924740      -14.1209831750  MEMB      182             0.0000000000
     22570       182  DOPC      O21            31.6966830858      -19.9277125462      -15.0663849906  MEMB      182             0.0000000000
     22571       182  DOPC      C21            32.6868624855      -20.6657820748      -14.6352580047  MEMB      182             0.0000000000
     22572       182  DOPC      O22            33.6688842392      -20.3535698535      -13.9902135083  MEMB      182             0.0000000000
     22573       182  DOPC      C22            32.4127977965      -22.0961544605      -15.0090756362  MEMB      182             0.0000000000
     22574       182  DOPC      H2R            33.2953273019      -22.6678124696      -15.3677811998  MEMB      182             0.0000000000
     22575       182  DOPC      H2S            31.7720489153      -22.2159436928      -15.9087489690  MEMB      182             0.0000000000
     22576       182  DOPC      C3             30.3721117048      -18.1313499026      -14.3256021779  MEMB      182             0.0000000000
     22577       182  DOPC      HX             29.6047527723      -18.4940740580      -15.0424789461  MEMB      182             0.0000000000
     22578       182  DOPC      HY             30.2671494148      -17.0270163595      -14.2643541012  MEMB      182             0.0000000000
     22579       182  DOPC      O31            30.1033094396      -18.7819284276      -13.0821101912  MEMB      182             0.0000000000
     22580       182  DOPC      C31            29.9348125365      -18.1283932757      -11.9154966361  MEMB      182             0.0000000000
     22581       182  DOPC      O32            29.7919932260      -16.9118968753      -11.7789534448  MEMB      182             0.0000000000
     22582       182  DOPC      C32            29.6856353368      -19.2149771625      -10.8534452683  MEMB      182             0.0000000000
     22583       182  DOPC      H2X            28.6365924211      -19.5694239049      -10.9439831534  MEMB      182             0.0000000000
     22584       182  DOPC      H2Y            30.3089232646      -20.0748333652      -11.1797584206  MEMB      182             0.0000000000
     22585       182  DOPC      C23            31.8788334031      -22.8129757257      -13.7289448687  MEMB      182             0.0000000000
     22586       182  DOPC      H3R            32.5984047419      -22.7153851635      -12.8881036410  MEMB      182             0.0000000000
     22587       182  DOPC      H3S            31.7704392552      -23.9035529122      -13.9111895981  MEMB      182             0.0000000000
     22588       182  DOPC      C24            30.6090289423      -22.2652648944      -13.3409032069  MEMB      182             0.0000000000
     22589       182  DOPC      H4R            29.9825935796      -22.1408828016      -14.2499846074  MEMB      182             0.0000000000
     22590       182  DOPC      H4S            30.7591884016      -21.2574139335      -12.8981736463  MEMB      182             0.0000000000
     22591       182  DOPC      C25            29.8634409296      -23.0961555586      -12.2889299551  MEMB      182             0.0000000000
     22592       182  DOPC      H5R            29.5044381417      -23.9987718982      -12.8281158987  MEMB      182             0.0000000000
     22593       182  DOPC      H5S            29.0894688732      -22.5629343972      -11.6965082919  MEMB      182             0.0000000000
     22594       182  DOPC      C26            30.9423300284      -23.5520620760      -11.1943063058  MEMB      182             0.0000000000
     22595       182  DOPC      H6R            31.4646707193      -22.6670813594      -10.7720616617  MEMB      182             0.0000000000
     22596       182  DOPC      H6S            31.7741161104      -24.1730234578      -11.5903616469  MEMB      182             0.0000000000
     22597       182  DOPC      C27            30.2223326856      -24.3660809377      -10.0546333896  MEMB      182             0.0000000000
     22598       182  DOPC      H7R            31.0517825983      -24.7697590484       -9.4354584097  MEMB      182             0.0000000000
     22599       182  DOPC      H7S            29.6815334899      -25.2443149470      -10.4676254232  MEMB      182             0.0000000000
     22600       182  DOPC      C28            29.1858220901      -23.5681886797       -9.2481891903  MEMB      182             0.0000000000
     22601       182  DOPC      H8R            28.6520320354      -24.2381868804       -8.5407353024  MEMB      182             0.0000000000
     22602       182  DOPC      H8S            28.3771653804      -23.3766093624       -9.9855445148  MEMB      182             0.0000000000
     22603       182  DOPC      C29            29.5971829769      -22.2082476650       -8.7194165196  MEMB      182             0.0000000000
     22604       182  DOPC      H9R            29.2848905032      -21.3596132160       -9.3457495659  MEMB      182             0.0000000000
     22605       182  DOPC      C210           30.3360537748      -21.9851623819       -7.6930965334  MEMB      182             0.0000000000
     22606       182  DOPC      H10R           30.5662712823      -20.9348682967       -7.4609713234  MEMB      182             0.0000000000
     22607       182  DOPC      C211           30.8123577960      -23.0977375811       -6.8318455510  MEMB      182             0.0000000000
     22608       182  DOPC      H11R           31.8392991323      -22.8269294384       -6.5056928214  MEMB      182             0.0000000000
     22609       182  DOPC      H11S           30.9654903270      -24.0517674590       -7.3802048738  MEMB      182             0.0000000000
     22610       182  DOPC      C212           30.1398168961      -23.4624541006       -5.4599514833  MEMB      182             0.0000000000
     22611       182  DOPC      H12R           30.7423941521      -24.2901601002       -5.0285306139  MEMB      182             0.0000000000
     22612       182  DOPC      H12S           29.1751619502      -23.9642959268       -5.6878032454  MEMB      182             0.0000000000
     22613       182  DOPC      C213           30.0035898027      -22.3010142795       -4.4868062350  MEMB      182             0.0000000000
     22614       182  DOPC      H13R           29.1601568136      -21.6337223579       -4.7654870923  MEMB      182             0.0000000000
     22615       182  DOPC      H13S           30.9387272550      -21.7121641104       -4.3723745961  MEMB      182             0.0000000000
     22616       182  DOPC      C214           29.6716601496      -22.6554363565       -3.0635796400  MEMB      182             0.0000000000
     22617       182  DOPC      H14R           28.7146968575      -23.2177140118       -3.0147348305  MEMB      182             0.0000000000
     22618       182  DOPC      H14S           29.4633345286      -21.6674877415       -2.6000293197  MEMB      182             0.0000000000
     22619       182  DOPC      C215           30.7909281437      -23.2907825219       -2.2433098667  MEMB      182             0.0000000000
     22620       182  DOPC      H15R           31.7798044085      -22.8112974211       -2.4062190454  MEMB      182             0.0000000000
     22621       182  DOPC      H15S           30.9662648004      -24.3653252340       -2.4645242507  MEMB      182             0.0000000000
     22622       182  DOPC      C216           30.4796219580      -23.1441991136       -0.7495372671  MEMB      182             0.0000000000
     22623       182  DOPC      H16R           29.5923189786      -23.7773977398       -0.5348884298  MEMB      182             0.0000000000
     22624       182  DOPC      H16S           30.3383886140      -22.0583423630       -0.5616825607  MEMB      182             0.0000000000
     22625       182  DOPC      C217           31.5589759051      -23.7075705631        0.2223135136  MEMB      182             0.0000000000
     22626       182  DOPC      H17R           31.7727465086      -24.7798982319        0.0254975879  MEMB      182             0.0000000000
     22627       182  DOPC      H17S           31.1072265387      -23.7286807333        1.2371025987  MEMB      182             0.0000000000
     22628       182  DOPC      C218           32.7718990573      -22.7977828310        0.2821215886  MEMB      182             0.0000000000
     22629       182  DOPC      H18R           32.4863970522      -21.7762166513       -0.0483496715  MEMB      182             0.0000000000
     22630       182  DOPC      H18S           33.5307439532      -23.1146926486       -0.4649020362  MEMB      182             0.0000000000
     22631       182  DOPC      H18T           33.3538918684      -22.8427921163        1.2274143944  MEMB      182             0.0000000000
     22632       182  DOPC      C33            30.2111472450      -18.6565639632       -9.5338564382  MEMB      182             0.0000000000
     22633       182  DOPC      H3X            29.8327254988      -19.2945692384       -8.7067731927  MEMB      182             0.0000000000
     22634       182  DOPC      H3Y            29.8882534374      -17.6425643810       -9.2146934671  MEMB      182             0.0000000000
     22635       182  DOPC      C34            31.7526304837      -18.7532846931       -9.5208504353  MEMB      182             0.0000000000
     22636       182  DOPC      H4X            32.0752795917      -18.3278349496       -8.5465758083  MEMB      182             0.0000000000
     22637       182  DOPC      H4Y            32.1185382877      -18.0214709156      -10.2724369424  MEMB      182             0.0000000000
     22638       182  DOPC      C35            32.4157321857      -20.1039491611       -9.8643317327  MEMB      182             0.0000000000
     22639       182  DOPC      H5X            32.3407495163      -20.1170679295      -10.9727210700  MEMB      182             0.0000000000
     22640       182  DOPC      H5Y            31.8107462073      -20.9846437189       -9.5598816589  MEMB      182             0.0000000000
     22641       182  DOPC      C36            33.8560405472      -20.2817554896       -9.4688982790  MEMB      182             0.0000000000
     22642       182  DOPC      H6X            34.5111602484      -19.5684157423      -10.0132202596  MEMB      182             0.0000000000
     22643       182  DOPC      H6Y            33.9339328179      -20.0636979469       -8.3822964044  MEMB      182             0.0000000000
     22644       182  DOPC      C37            34.2889055993      -21.6938264261       -9.7238788836  MEMB      182             0.0000000000
     22645       182  DOPC      H7X            33.5155613579      -22.3588368040       -9.2833996055  MEMB      182             0.0000000000
     22646       182  DOPC      H7Y            34.3157191287      -21.9287273961      -10.8094302895  MEMB      182             0.0000000000
     22647       182  DOPC      C38            35.7032738228      -22.0379153347       -9.0579624695  MEMB      182             0.0000000000
     22648       182  DOPC      H8X            35.8818101621      -21.3691863160       -8.1889125057  MEMB      182             0.0000000000
     22649       182  DOPC      H8Y            36.4230835539      -21.6380052045       -9.8037948143  MEMB      182             0.0000000000
     22650       182  DOPC      C39            35.8644474305      -23.5586045200       -8.8802439335  MEMB      182             0.0000000000
     22651       182  DOPC      H9X            35.8137584724      -24.1750601251       -9.7898664655  MEMB      182             0.0000000000
     22652       182  DOPC      C310           36.0712026280      -24.1258792236       -7.6665193834  MEMB      182             0.0000000000
     22653       182  DOPC      H10X           36.2178398171      -25.2150805388       -7.7127593152  MEMB      182             0.0000000000
     22654       182  DOPC      C311           36.2034724256      -23.3793377686       -6.3661362505  MEMB      182             0.0000000000
     22655       182  DOPC      H11X           36.7008707286      -22.3861305539       -6.3874719520  MEMB      182             0.0000000000
     22656       182  DOPC      H11Y           36.7867419819      -24.0434833950       -5.6930629690  MEMB      182             0.0000000000
     22657       182  DOPC      C312           34.8014416063      -23.0715290157       -5.8474340617  MEMB      182             0.0000000000
     22658       182  DOPC      H12X           34.0250778923      -23.8347292404       -6.0690317896  MEMB      182             0.0000000000
     22659       182  DOPC      H12Y           34.3429319119      -22.2072765818       -6.3738917640  MEMB      182             0.0000000000
     22660       182  DOPC      C313           34.7914159069      -22.7536506574       -4.2902985080  MEMB      182             0.0000000000
     22661       182  DOPC      H13X           33.7701367402      -22.7436798266       -3.8530216903  MEMB      182             0.0000000000
     22662       182  DOPC      H13Y           35.2950679463      -23.6291335941       -3.8274966100  MEMB      182             0.0000000000
     22663       182  DOPC      C314           35.5284310429      -21.4731584526       -3.8949457383  MEMB      182             0.0000000000
     22664       182  DOPC      H14X           35.5624062642      -21.3010131229       -2.7978893974  MEMB      182             0.0000000000
     22665       182  DOPC      H14Y           36.5365012318      -21.6347168302       -4.3331404043  MEMB      182             0.0000000000
     22666       182  DOPC      C315           34.8211890503      -20.2274002608       -4.4831515069  MEMB      182             0.0000000000
     22667       182  DOPC      H15X           33.7754424248      -20.3651008991       -4.1341918420  MEMB      182             0.0000000000
     22668       182  DOPC      H15Y           34.7824109654      -20.3340553236       -5.5883410429  MEMB      182             0.0000000000
     22669       182  DOPC      C316           35.5085995524      -18.8917350390       -4.1690232438  MEMB      182             0.0000000000
     22670       182  DOPC      H16X           36.5085034263      -19.1697261236       -4.5655518223  MEMB      182             0.0000000000
     22671       182  DOPC      H16Y           35.0792807751      -17.9741761784       -4.6251945550  MEMB      182             0.0000000000
     22672       182  DOPC      C317           35.6812828520      -18.5486491103       -2.7215605035  MEMB      182             0.0000000000
     22673       182  DOPC      H17X           36.2394420279      -19.3756883162       -2.2329049290  MEMB      182             0.0000000000
     22674       182  DOPC      H17Y           36.1102838886      -17.5541821532       -2.4739426671  MEMB      182             0.0000000000
     22675       182  DOPC      C318           34.4039439752      -18.5459020144       -1.9192670614  MEMB      182             0.0000000000
     22676       182  DOPC      H18X           33.6665201453      -17.8152852171       -2.3151527431  MEMB      182             0.0000000000
     22677       182  DOPC      H18Y           33.9725587538      -19.5673891393       -1.8500453138  MEMB      182             0.0000000000
     22678       182  DOPC      H18Z           34.5710503306      -18.1218486687       -0.9060667851  MEMB      182             0.0000000000
     22679       183  CHL1      C3            -34.2569750998      -21.0424907278      -17.3804650000  MEMB      183             0.0000000000
     22680       183  CHL1      H3            -34.6235785210      -22.0411548598      -17.7007550000  MEMB      183             0.0000000000
     22681       183  CHL1      O3            -34.1828845002      -20.4910396722      -18.6195350000  MEMB      183             0.0000000000
     22682       183  CHL1      H3'           -33.2756462220      -20.1886621647      -18.7037550000  MEMB      183             0.0000000000
     22683       183  CHL1      C4            -35.3180484894      -20.4218088741      -16.5236450000  MEMB      183             0.0000000000
     22684       183  CHL1      H4A           -35.1488727541      -19.3237616522      -16.5234950000  MEMB      183             0.0000000000
     22685       183  CHL1      H4B           -36.3189569112      -20.6352367582      -16.9560050000  MEMB      183             0.0000000000
     22686       183  CHL1      C5            -35.2944891512      -20.9673200103      -15.1020250000  MEMB      183             0.0000000000
     22687       183  CHL1      C6            -36.4037855347      -21.4720988957      -14.4349350000  MEMB      183             0.0000000000
     22688       183  CHL1      H6            -37.3122800151      -21.5728768733      -15.0468750000  MEMB      183             0.0000000000
     22689       183  CHL1      C7            -36.3782557184      -22.1060409711      -13.1288150000  MEMB      183             0.0000000000
     22690       183  CHL1      H7A           -37.2853483245      -21.9691440168      -12.5021150000  MEMB      183             0.0000000000
     22691       183  CHL1      H7B           -36.3068508191      -23.2110653782      -13.2190150000  MEMB      183             0.0000000000
     22692       183  CHL1      C8            -35.2124713476      -21.5211903348      -12.2405750000  MEMB      183             0.0000000000
     22693       183  CHL1      H8            -35.3175634138      -20.4194122929      -12.1437250000  MEMB      183             0.0000000000
     22694       183  CHL1      C14           -35.0325074903      -22.2887237009      -11.0100050000  MEMB      183             0.0000000000
     22695       183  CHL1      H14           -34.5519231799      -23.2360368019      -11.3355050000  MEMB      183             0.0000000000
     22696       183  CHL1      C15           -36.2934673335      -22.4407449899      -10.1589050000  MEMB      183             0.0000000000
     22697       183  CHL1      H15A          -36.9488504775      -21.5461144150      -10.2255250000  MEMB      183             0.0000000000
     22698       183  CHL1      H15B          -36.8919281521      -23.3246915165      -10.4667950000  MEMB      183             0.0000000000
     22699       183  CHL1      C16           -35.6359332368      -22.6400609675       -8.7749850000  MEMB      183             0.0000000000
     22700       183  CHL1      H16A          -35.8717842566      -21.7384539087       -8.1701750000  MEMB      183             0.0000000000
     22701       183  CHL1      H16B          -35.9809733844      -23.5657720617       -8.2667050000  MEMB      183             0.0000000000
     22702       183  CHL1      C17           -34.1079447250      -22.5732826833       -8.9142350000  MEMB      183             0.0000000000
     22703       183  CHL1      H17           -33.8813884891      -23.6290011989       -9.1758650000  MEMB      183             0.0000000000
     22704       183  CHL1      C13           -33.9298178017      -21.6894461013      -10.1418250000  MEMB      183             0.0000000000
     22705       183  CHL1      C18           -34.1292446336      -20.2454076449       -9.8198450000  MEMB      183             0.0000000000
     22706       183  CHL1      H18A          -35.1853198526      -19.9865073044       -9.5918350000  MEMB      183             0.0000000000
     22707       183  CHL1      H18B          -33.4264938027      -20.0541672135       -8.9808650000  MEMB      183             0.0000000000
     22708       183  CHL1      H18C          -33.8468609977      -19.6537647392      -10.7168150000  MEMB      183             0.0000000000
     22709       183  CHL1      C12           -32.5589401716      -21.8945784182      -10.7722750000  MEMB      183             0.0000000000
     22710       183  CHL1      H12A          -31.7969050149      -21.3047501977      -10.2193550000  MEMB      183             0.0000000000
     22711       183  CHL1      H12B          -32.3485268986      -22.9836330215      -10.7088950000  MEMB      183             0.0000000000
     22712       183  CHL1      C11           -32.6026288549      -21.3893604064      -12.1842150000  MEMB      183             0.0000000000
     22713       183  CHL1      H11A          -32.5056112612      -20.3083984586      -11.9466550000  MEMB      183             0.0000000000
     22714       183  CHL1      H11B          -31.6595864661      -21.5855615724      -12.7378350000  MEMB      183             0.0000000000
     22715       183  CHL1      C9            -33.8565941162      -21.7024378670      -13.0545850000  MEMB      183             0.0000000000
     22716       183  CHL1      H9            -33.8158112829      -22.7850555994      -13.3007750000  MEMB      183             0.0000000000
     22717       183  CHL1      C10           -33.9434086813      -20.9108780452      -14.3888650000  MEMB      183             0.0000000000
     22718       183  CHL1      C19           -33.5563800584      -19.4303093109      -14.1501950000  MEMB      183             0.0000000000
     22719       183  CHL1      H19A          -33.6429690633      -18.8260461285      -15.0784650000  MEMB      183             0.0000000000
     22720       183  CHL1      H19B          -34.2244606124      -19.0233663942      -13.3612750000  MEMB      183             0.0000000000
     22721       183  CHL1      H19C          -32.5087048994      -19.3045294472      -13.8025150000  MEMB      183             0.0000000000
     22722       183  CHL1      C1            -32.9737599569      -21.6584379372      -15.3241150000  MEMB      183             0.0000000000
     22723       183  CHL1      H1A           -31.9362850595      -21.6256055596      -14.9280150000  MEMB      183             0.0000000000
     22724       183  CHL1      H1B           -33.2592150693      -22.7292305911      -15.4031350000  MEMB      183             0.0000000000
     22725       183  CHL1      C2            -32.8806482493      -21.0578204596      -16.7548950000  MEMB      183             0.0000000000
     22726       183  CHL1      H2A           -32.2163074702      -21.5763368633      -17.4788550000  MEMB      183             0.0000000000
     22727       183  CHL1      H2B           -32.5791074701      -19.9915664643      -16.6742550000  MEMB      183             0.0000000000
     22728       183  CHL1      C20           -33.3786073670      -22.2357079997       -7.5646250000  MEMB      183             0.0000000000
     22729       183  CHL1      H20           -33.5838815640      -21.1546888178       -7.4110150000  MEMB      183             0.0000000000
     22730       183  CHL1      C21           -31.8728759307      -22.5141958886       -7.6383350000  MEMB      183             0.0000000000
     22731       183  CHL1      H21A          -31.6897156413      -23.6081748579       -7.7014050000  MEMB      183             0.0000000000
     22732       183  CHL1      H21B          -31.3801746471      -22.0637010268       -6.7502950000  MEMB      183             0.0000000000
     22733       183  CHL1      H21C          -31.4116876295      -21.9643489275       -8.4864450000  MEMB      183             0.0000000000
     22734       183  CHL1      C22           -34.0148013870      -22.9067225195       -6.2963850000  MEMB      183             0.0000000000
     22735       183  CHL1      H22A          -35.0758307920      -22.5777238442       -6.3137650000  MEMB      183             0.0000000000
     22736       183  CHL1      H22B          -34.0877407501      -24.0142416983       -6.3454250000  MEMB      183             0.0000000000
     22737       183  CHL1      C23           -33.3130730550      -22.6034898536       -4.9655350000  MEMB      183             0.0000000000
     22738       183  CHL1      H23A          -32.4663516498      -23.3184793744       -4.8869450000  MEMB      183             0.0000000000
     22739       183  CHL1      H23B          -33.0525876775      -21.5263874580       -4.8859950000  MEMB      183             0.0000000000
     22740       183  CHL1      C24           -34.2509265846      -22.9109546867       -3.7149750000  MEMB      183             0.0000000000
     22741       183  CHL1      H24A          -35.1244760707      -22.2450411791       -3.8817150000  MEMB      183             0.0000000000
     22742       183  CHL1      H24B          -34.4765499377      -23.9970099675       -3.7775250000  MEMB      183             0.0000000000
     22743       183  CHL1      C25           -33.5066429904      -22.6426900898       -2.4661750000  MEMB      183             0.0000000000
     22744       183  CHL1      H25           -33.1014150363      -21.6085019453       -2.4899850000  MEMB      183             0.0000000000
     22745       183  CHL1      C26           -34.4784442226      -22.7760666453       -1.2987050000  MEMB      183             0.0000000000
     22746       183  CHL1      H26A          -35.2404014118      -21.9681564907       -1.2666050000  MEMB      183             0.0000000000
     22747       183  CHL1      H26B          -35.0509339070      -23.7268358858       -1.3497950000  MEMB      183             0.0000000000
     22748       183  CHL1      H26C          -34.0315829617      -22.7003398515       -0.2843550000  MEMB      183             0.0000000000
     22749       183  CHL1      C27           -32.4284419527      -23.7777890970       -2.2111750000  MEMB      183             0.0000000000
     22750       183  CHL1      H27A          -31.4991746969      -23.6037704838       -2.7947050000  MEMB      183             0.0000000000
     22751       183  CHL1      H27B          -32.0287736452      -23.7337772516       -1.1754850000  MEMB      183             0.0000000000
     22752       183  CHL1      H27C          -32.7970616806      -24.8031846152       -2.4279750000  MEMB      183             0.0000000000
     22753       184  DOPC      N             -21.1215117405      -34.6871530528      -21.2454569122  MEMB      184             0.0000000000
     22754       184  DOPC      C12           -20.2489806609      -35.8734951655      -20.6495081313  MEMB      184             0.0000000000
     22755       184  DOPC      H12A          -19.2412023073      -35.4852508301      -20.6565211396  MEMB      184             0.0000000000
     22756       184  DOPC      H12B          -20.2327984844      -36.7356204127      -21.2997990190  MEMB      184             0.0000000000
     22757       184  DOPC      C13           -22.6472217989      -34.9057958367      -21.1162433249  MEMB      184             0.0000000000
     22758       184  DOPC      H13A          -23.2294492445      -34.0979040284      -21.5342409487  MEMB      184             0.0000000000
     22759       184  DOPC      H13B          -22.9204939924      -35.8637639752      -21.5333994242  MEMB      184             0.0000000000
     22760       184  DOPC      H13C          -22.8824993423      -35.0056625121      -20.0669239224  MEMB      184             0.0000000000
     22761       184  DOPC      C14           -20.8025308387      -34.5035662965      -22.7427851509  MEMB      184             0.0000000000
     22762       184  DOPC      H14A          -19.8220285892      -34.1542228774      -23.0308384611  MEMB      184             0.0000000000
     22763       184  DOPC      H14B          -21.0795581829      -35.4798980812      -23.1121522769  MEMB      184             0.0000000000
     22764       184  DOPC      H14C          -21.5224231980      -33.7895620108      -23.1147435124  MEMB      184             0.0000000000
     22765       184  DOPC      C15           -20.8669535787      -33.4236495713      -20.5115176530  MEMB      184             0.0000000000
     22766       184  DOPC      H15A          -19.8030965407      -33.2382414331      -20.5267505726  MEMB      184             0.0000000000
     22767       184  DOPC      H15B          -21.1808374464      -33.4557974599      -19.4786366448  MEMB      184             0.0000000000
     22768       184  DOPC      H15C          -21.3586837162      -32.5676268626      -20.9494980194  MEMB      184             0.0000000000
     22769       184  DOPC      C11           -20.4707493621      -36.3031156359      -19.1594831840  MEMB      184             0.0000000000
     22770       184  DOPC      H11A          -21.5130256190      -36.6428250704      -18.9789876774  MEMB      184             0.0000000000
     22771       184  DOPC      H11B          -19.8009698994      -37.1619900095      -18.9402768916  MEMB      184             0.0000000000
     22772       184  DOPC      P             -20.1256065216      -35.4111665788      -16.6470066263  MEMB      184             0.0000000000
     22773       184  DOPC      O13           -19.8817441265      -34.1409806312      -15.8892419956  MEMB      184             0.0000000000
     22774       184  DOPC      O14           -19.3944829214      -36.6444690844      -16.4102418505  MEMB      184             0.0000000000
     22775       184  DOPC      O12           -20.2224765568      -35.1735417064      -18.2422572812  MEMB      184             0.0000000000
     22776       184  DOPC      O11           -21.6515029961      -35.7237927556      -16.3862578892  MEMB      184             0.0000000000
     22777       184  DOPC      C1            -22.7026544529      -34.9063742775      -16.8494746938  MEMB      184             0.0000000000
     22778       184  DOPC      HA            -23.0671277989      -35.3688327965      -17.7916065347  MEMB      184             0.0000000000
     22779       184  DOPC      HB            -22.2556390834      -33.9048663738      -17.0269013285  MEMB      184             0.0000000000
     22780       184  DOPC      C2            -23.9640889923      -34.7927484567      -15.8755348651  MEMB      184             0.0000000000
     22781       184  DOPC      HS            -24.7186808899      -34.0580816177      -16.2293376064  MEMB      184             0.0000000000
     22782       184  DOPC      O21           -23.6168441606      -34.6131418886      -14.4653129055  MEMB      184             0.0000000000
     22783       184  DOPC      C21           -22.9993336044      -33.5682159076      -14.1124047942  MEMB      184             0.0000000000
     22784       184  DOPC      O22           -22.5814780055      -32.6475059520      -14.8312766678  MEMB      184             0.0000000000
     22785       184  DOPC      C22           -22.8641067243      -33.5745876518      -12.5874337766  MEMB      184             0.0000000000
     22786       184  DOPC      H2R           -23.7417200392      -34.0367344327      -12.0868979742  MEMB      184             0.0000000000
     22787       184  DOPC      H2S           -22.7839859614      -32.5255732665      -12.2304035717  MEMB      184             0.0000000000
     22788       184  DOPC      C3            -24.7597028532      -36.1110110595      -15.9880371722  MEMB      184             0.0000000000
     22789       184  DOPC      HX            -25.1640933311      -36.2805638420      -17.0088413304  MEMB      184             0.0000000000
     22790       184  DOPC      HY            -25.6911616521      -36.0923148929      -15.3827640425  MEMB      184             0.0000000000
     22791       184  DOPC      O31           -23.9482793369      -37.2426300176      -15.7307077112  MEMB      184             0.0000000000
     22792       184  DOPC      C31           -23.9042743510      -37.8169542771      -14.5358428353  MEMB      184             0.0000000000
     22793       184  DOPC      O32           -24.7593534853      -37.7039919185      -13.6742476878  MEMB      184             0.0000000000
     22794       184  DOPC      C32           -22.5909070604      -38.6419598390      -14.3388786607  MEMB      184             0.0000000000
     22795       184  DOPC      H2X           -22.6454803506      -39.5048706465      -15.0365372793  MEMB      184             0.0000000000
     22796       184  DOPC      H2Y           -21.7822299653      -37.9498084672      -14.6571381220  MEMB      184             0.0000000000
     22797       184  DOPC      C23           -21.4187138166      -34.0938775889      -12.2364713206  MEMB      184             0.0000000000
     22798       184  DOPC      H3R           -21.1147966593      -33.5599455146      -11.3107976211  MEMB      184             0.0000000000
     22799       184  DOPC      H3S           -20.7619529527      -33.6898065212      -13.0362919768  MEMB      184             0.0000000000
     22800       184  DOPC      C24           -21.2362709206      -35.6512150078      -12.3432883988  MEMB      184             0.0000000000
     22801       184  DOPC      H4R           -21.5419867122      -36.1371073826      -13.2944808998  MEMB      184             0.0000000000
     22802       184  DOPC      H4S           -22.0512136930      -36.1115697290      -11.7447380117  MEMB      184             0.0000000000
     22803       184  DOPC      C25           -19.8782986147      -36.2097105697      -11.8728645863  MEMB      184             0.0000000000
     22804       184  DOPC      H5R           -19.0369679838      -35.6077598842      -12.2780051955  MEMB      184             0.0000000000
     22805       184  DOPC      H5S           -19.6669995076      -37.2200352263      -12.2838605576  MEMB      184             0.0000000000
     22806       184  DOPC      C26           -19.6801431432      -36.3576808418      -10.3732902402  MEMB      184             0.0000000000
     22807       184  DOPC      H6R           -19.6849947134      -35.3430467249       -9.9207251270  MEMB      184             0.0000000000
     22808       184  DOPC      H6S           -18.6431972411      -36.7119059814      -10.1900169053  MEMB      184             0.0000000000
     22809       184  DOPC      C27           -20.7948877916      -37.2057870363       -9.6841525944  MEMB      184             0.0000000000
     22810       184  DOPC      H7R           -21.0560356303      -37.9855557377      -10.4312026354  MEMB      184             0.0000000000
     22811       184  DOPC      H7S           -21.7390039794      -36.6347342201       -9.5542898120  MEMB      184             0.0000000000
     22812       184  DOPC      C28           -20.4634502509      -37.9294560388       -8.2873670058  MEMB      184             0.0000000000
     22813       184  DOPC      H8R           -19.5584626868      -38.5561006263       -8.4378156648  MEMB      184             0.0000000000
     22814       184  DOPC      H8S           -21.3679433455      -38.5266635624       -8.0433249334  MEMB      184             0.0000000000
     22815       184  DOPC      C29           -20.2168452533      -36.8277977627       -7.2531181317  MEMB      184             0.0000000000
     22816       184  DOPC      H9R           -19.1879407087      -36.5574796364       -6.9733261562  MEMB      184             0.0000000000
     22817       184  DOPC      C210          -21.1746152970      -36.2054495224       -6.5473721449  MEMB      184             0.0000000000
     22818       184  DOPC      H10R          -21.0175616539      -35.3010309950       -5.9412689788  MEMB      184             0.0000000000
     22819       184  DOPC      C211          -22.5998888959      -36.5641271123       -6.7860092700  MEMB      184             0.0000000000
     22820       184  DOPC      H11R          -23.0282648250      -37.1419905530       -5.9393163771  MEMB      184             0.0000000000
     22821       184  DOPC      H11S          -22.7392576975      -37.2321529886       -7.6627299091  MEMB      184             0.0000000000
     22822       184  DOPC      C212          -23.5687356243      -35.3945127661       -7.1301269833  MEMB      184             0.0000000000
     22823       184  DOPC      H12R          -24.5562025706      -35.8368388968       -7.3822729876  MEMB      184             0.0000000000
     22824       184  DOPC      H12S          -23.1415038471      -34.9756941766       -8.0662813058  MEMB      184             0.0000000000
     22825       184  DOPC      C213          -23.6332325090      -34.2063547990       -6.1216987583  MEMB      184             0.0000000000
     22826       184  DOPC      H13R          -24.5319542688      -33.6447873624       -6.4552583595  MEMB      184             0.0000000000
     22827       184  DOPC      H13S          -22.7688019640      -33.5228921586       -6.2629792908  MEMB      184             0.0000000000
     22828       184  DOPC      C214          -23.8023047309      -34.6506682506       -4.6943370847  MEMB      184             0.0000000000
     22829       184  DOPC      H14R          -23.1228324234      -35.5170030056       -4.5456691131  MEMB      184             0.0000000000
     22830       184  DOPC      H14S          -24.7815492650      -35.1291010684       -4.4786900853  MEMB      184             0.0000000000
     22831       184  DOPC      C215          -23.5812165633      -33.6764009594       -3.5791781557  MEMB      184             0.0000000000
     22832       184  DOPC      H15R          -24.0229059942      -34.0199349114       -2.6193787792  MEMB      184             0.0000000000
     22833       184  DOPC      H15S          -23.9420929062      -32.6905673903       -3.9428008193  MEMB      184             0.0000000000
     22834       184  DOPC      C216          -22.1579469426      -33.3953436768       -3.1591706673  MEMB      184             0.0000000000
     22835       184  DOPC      H16R          -22.2593990899      -32.5144606761       -2.4897873546  MEMB      184             0.0000000000
     22836       184  DOPC      H16S          -21.5512014665      -32.9485172755       -3.9755824998  MEMB      184             0.0000000000
     22837       184  DOPC      C217          -21.4517037434      -34.5063966851       -2.4160771070  MEMB      184             0.0000000000
     22838       184  DOPC      H17R          -21.1834868862      -35.2774591781       -3.1696305882  MEMB      184             0.0000000000
     22839       184  DOPC      H17S          -22.1275162840      -34.8797756594       -1.6172108189  MEMB      184             0.0000000000
     22840       184  DOPC      C218          -20.2861755735      -34.2084277316       -1.5633289555  MEMB      184             0.0000000000
     22841       184  DOPC      H18R          -20.2146261659      -34.8311977080       -0.6460728857  MEMB      184             0.0000000000
     22842       184  DOPC      H18S          -20.3559519118      -33.1311833583       -1.3006557829  MEMB      184             0.0000000000
     22843       184  DOPC      H18T          -19.3508178894      -34.4116063357       -2.1273738515  MEMB      184             0.0000000000
     22844       184  DOPC      C33           -22.6525036378      -39.1695399422      -12.9146086546  MEMB      184             0.0000000000
     22845       184  DOPC      H3X           -22.7625189169      -38.2753136392      -12.2645495648  MEMB      184             0.0000000000
     22846       184  DOPC      H3Y           -21.6198616549      -39.4974700055      -12.6687761115  MEMB      184             0.0000000000
     22847       184  DOPC      C34           -23.5891221333      -40.3865813567      -12.6716155810  MEMB      184             0.0000000000
     22848       184  DOPC      H4X           -23.1366453364      -41.0418192415      -13.4463730983  MEMB      184             0.0000000000
     22849       184  DOPC      H4Y           -24.6443450736      -40.1659105470      -12.9401853983  MEMB      184             0.0000000000
     22850       184  DOPC      C35           -23.4828666493      -41.0131134839      -11.2804254056  MEMB      184             0.0000000000
     22851       184  DOPC      H5X           -22.4249058387      -41.3021701384      -11.1029821234  MEMB      184             0.0000000000
     22852       184  DOPC      H5Y           -23.8390921351      -42.0654382015      -11.2865528110  MEMB      184             0.0000000000
     22853       184  DOPC      C36           -24.2118312177      -40.2938988137      -10.1107969438  MEMB      184             0.0000000000
     22854       184  DOPC      H6X           -23.6943562811      -39.3137404355      -10.0344412661  MEMB      184             0.0000000000
     22855       184  DOPC      H6Y           -25.2428009130      -40.1325143771      -10.4920813838  MEMB      184             0.0000000000
     22856       184  DOPC      C37           -24.3100542818      -40.9495875326       -8.7150789953  MEMB      184             0.0000000000
     22857       184  DOPC      H7X           -24.9422065185      -40.3031721039       -8.0694386182  MEMB      184             0.0000000000
     22858       184  DOPC      H7Y           -24.8713389141      -41.9044877675       -8.8013696158  MEMB      184             0.0000000000
     22859       184  DOPC      C38           -22.9206697415      -41.3532551547       -8.0186362422  MEMB      184             0.0000000000
     22860       184  DOPC      H8X           -22.4768508018      -40.3376856626       -7.9414083627  MEMB      184             0.0000000000
     22861       184  DOPC      H8Y           -22.4088978405      -42.0354085000       -8.7307295930  MEMB      184             0.0000000000
     22862       184  DOPC      C39           -23.0991536275      -41.9961305418       -6.6852462482  MEMB      184             0.0000000000
     22863       184  DOPC      H9X           -23.0210029202      -43.0904597450       -6.6056427009  MEMB      184             0.0000000000
     22864       184  DOPC      C310          -23.2028867691      -41.3016179990       -5.5436329851  MEMB      184             0.0000000000
     22865       184  DOPC      H10X          -23.4890528201      -41.8171120781       -4.6149909480  MEMB      184             0.0000000000
     22866       184  DOPC      C311          -23.1374635237      -39.7629746638       -5.3939406371  MEMB      184             0.0000000000
     22867       184  DOPC      H11X          -23.5104649948      -39.2823050884       -6.3235352225  MEMB      184             0.0000000000
     22868       184  DOPC      H11Y          -22.0479478573      -39.5501620393       -5.3493612972  MEMB      184             0.0000000000
     22869       184  DOPC      C312          -23.8270712082      -39.2440727486       -4.1030637765  MEMB      184             0.0000000000
     22870       184  DOPC      H12X          -24.6916573611      -39.8913030942       -3.8424778310  MEMB      184             0.0000000000
     22871       184  DOPC      H12Y          -24.1007884228      -38.1681243767       -4.0614127682  MEMB      184             0.0000000000
     22872       184  DOPC      C313          -22.8052157057      -39.0700922021       -2.9432351292  MEMB      184             0.0000000000
     22873       184  DOPC      H13X          -22.2801197106      -40.0463511625       -2.8689806084  MEMB      184             0.0000000000
     22874       184  DOPC      H13Y          -22.1201300335      -38.2612667868       -3.2760717863  MEMB      184             0.0000000000
     22875       184  DOPC      C314          -23.5684417345      -38.8163450879       -1.6637012524  MEMB      184             0.0000000000
     22876       184  DOPC      H14X          -24.3053462681      -38.0062331535       -1.8508128211  MEMB      184             0.0000000000
     22877       184  DOPC      H14Y          -24.1434336923      -39.7487717361       -1.4785352164  MEMB      184             0.0000000000
     22878       184  DOPC      C315          -22.6424536941      -38.4247276739       -0.4550529587  MEMB      184             0.0000000000
     22879       184  DOPC      H15X          -22.0262306549      -37.5424403632       -0.7310230244  MEMB      184             0.0000000000
     22880       184  DOPC      H15Y          -21.9828778173      -39.3005457578       -0.2755452956  MEMB      184             0.0000000000
     22881       184  DOPC      C316          -23.4324670068      -38.0964877981        0.8230374583  MEMB      184             0.0000000000
     22882       184  DOPC      H16X          -24.3809749456      -38.6746141600        0.8436316585  MEMB      184             0.0000000000
     22883       184  DOPC      H16Y          -22.8268153401      -38.3605753570        1.7162151107  MEMB      184             0.0000000000
     22884       184  DOPC      C317          -23.8426917940      -36.6656950993        1.0279733199  MEMB      184             0.0000000000
     22885       184  DOPC      H17X          -24.5295116776      -36.5185927177        1.8887647062  MEMB      184             0.0000000000
     22886       184  DOPC      H17Y          -22.9009685500      -36.0842452543        1.1248983233  MEMB      184             0.0000000000
     22887       184  DOPC      C318          -24.5533779086      -36.0502772052       -0.1973952215  MEMB      184             0.0000000000
     22888       184  DOPC      H18X          -23.9554822642      -36.0788170538       -1.1333580179  MEMB      184             0.0000000000
     22889       184  DOPC      H18Y          -25.5374638258      -36.5458143502       -0.3400097916  MEMB      184             0.0000000000
     22890       184  DOPC      H18Z          -24.7425728872      -34.9675810507       -0.0352372049  MEMB      184             0.0000000000
     22891       185  CHL1      C3             29.9650076176      -27.4690198141      -17.2957300000  MEMB      185             0.0000000000
     22892       185  CHL1      H3             30.3092090676      -28.4522203531      -16.9095200000  MEMB      185             0.0000000000
     22893       185  CHL1      O3             29.7258435824      -27.4120767859      -18.7042700000  MEMB      185             0.0000000000
     22894       185  CHL1      H3'            28.9773128000      -27.9414571034      -18.9890000000  MEMB      185             0.0000000000
     22895       185  CHL1      C4             28.6757657107      -27.1783372794      -16.5007700000  MEMB      185             0.0000000000
     22896       185  CHL1      H4A            28.3373011137      -26.1306667581      -16.6495800000  MEMB      185             0.0000000000
     22897       185  CHL1      H4B            27.7659291232      -27.7374470141      -16.8072300000  MEMB      185             0.0000000000
     22898       185  CHL1      C5             28.9049129079      -27.3459428535      -15.0510600000  MEMB      185             0.0000000000
     22899       185  CHL1      C6             28.3343843595      -28.3442492880      -14.4155000000  MEMB      185             0.0000000000
     22900       185  CHL1      H6             27.5662867926      -28.9611150869      -14.9049000000  MEMB      185             0.0000000000
     22901       185  CHL1      C7             28.3897005306      -28.5826632258      -12.9207700000  MEMB      185             0.0000000000
     22902       185  CHL1      H7A            27.3969074775      -28.7738456816      -12.4602000000  MEMB      185             0.0000000000
     22903       185  CHL1      H7B            28.8526278482      -29.5826427061      -12.7791600000  MEMB      185             0.0000000000
     22904       185  CHL1      C8             29.1684090211      -27.4524273047      -12.1928300000  MEMB      185             0.0000000000
     22905       185  CHL1      H8             28.5088439931      -26.5674258806      -12.0660900000  MEMB      185             0.0000000000
     22906       185  CHL1      C14            29.6733730664      -28.0759850302      -10.8389300000  MEMB      185             0.0000000000
     22907       185  CHL1      H14            30.3538901240      -28.8650978072      -11.2243200000  MEMB      185             0.0000000000
     22908       185  CHL1      C15            28.7489918036      -28.9522635574       -9.9707600000  MEMB      185             0.0000000000
     22909       185  CHL1      H15A           27.7963584705      -28.4322808329       -9.7331900000  MEMB      185             0.0000000000
     22910       185  CHL1      H15B           28.5220160236      -29.9591298600      -10.3818800000  MEMB      185             0.0000000000
     22911       185  CHL1      C16            29.4057904079      -29.0723210183       -8.6243400000  MEMB      185             0.0000000000
     22912       185  CHL1      H16A           28.7185926382      -28.6504564116       -7.8600600000  MEMB      185             0.0000000000
     22913       185  CHL1      H16B           29.7518034020      -30.0994537062       -8.3802400000  MEMB      185             0.0000000000
     22914       185  CHL1      C17            30.6786222199      -28.1816722188       -8.7172600000  MEMB      185             0.0000000000
     22915       185  CHL1      H17            31.3939316489      -28.9181165793       -9.1418900000  MEMB      185             0.0000000000
     22916       185  CHL1      C13            30.5365837010      -27.1761533664       -9.9727500000  MEMB      185             0.0000000000
     22917       185  CHL1      C18            29.7781342583      -25.9409060813       -9.3886700000  MEMB      185             0.0000000000
     22918       185  CHL1      H18A           28.9945483120      -26.3008235769       -8.6881100000  MEMB      185             0.0000000000
     22919       185  CHL1      H18B           30.4383967731      -25.1775731529       -8.9242300000  MEMB      185             0.0000000000
     22920       185  CHL1      H18C           29.2963295038      -25.2745954442      -10.1358000000  MEMB      185             0.0000000000
     22921       185  CHL1      C12            31.7227081914      -26.6808328007      -10.8474300000  MEMB      185             0.0000000000
     22922       185  CHL1      H12A           32.2872045695      -25.9856294963      -10.1898900000  MEMB      185             0.0000000000
     22923       185  CHL1      H12B           32.3743814063      -27.5176508493      -11.1781400000  MEMB      185             0.0000000000
     22924       185  CHL1      C11            31.2506261759      -26.0360685404      -12.1172200000  MEMB      185             0.0000000000
     22925       185  CHL1      H11A           30.6397952220      -25.1673360011      -11.7908500000  MEMB      185             0.0000000000
     22926       185  CHL1      H11B           32.0140006529      -25.5201504415      -12.7380300000  MEMB      185             0.0000000000
     22927       185  CHL1      C9             30.3950350932      -26.9759545901      -13.0283100000  MEMB      185             0.0000000000
     22928       185  CHL1      H9             31.0163696685      -27.8785223881      -13.2116700000  MEMB      185             0.0000000000
     22929       185  CHL1      C10            29.9328664058      -26.4578658602      -14.4136200000  MEMB      185             0.0000000000
     22930       185  CHL1      C19            29.3822233301      -24.9532274322      -14.2449800000  MEMB      185             0.0000000000
     22931       185  CHL1      H19A           28.4324681207      -24.8774993352      -13.6735300000  MEMB      185             0.0000000000
     22932       185  CHL1      H19B           30.0779819714      -24.2366402118      -13.7584200000  MEMB      185             0.0000000000
     22933       185  CHL1      H19C           29.2189989984      -24.6227742361      -15.2930600000  MEMB      185             0.0000000000
     22934       185  CHL1      C1             31.1947056716      -26.5050459560      -15.3312700000  MEMB      185             0.0000000000
     22935       185  CHL1      H1A            31.8980950716      -25.6591897493      -15.1760700000  MEMB      185             0.0000000000
     22936       185  CHL1      H1B            31.6981465368      -27.4675038032      -15.0976900000  MEMB      185             0.0000000000
     22937       185  CHL1      C2             31.0407142122      -26.4928573336      -16.9083200000  MEMB      185             0.0000000000
     22938       185  CHL1      H2A            32.0392129828      -26.6206824721      -17.3784000000  MEMB      185             0.0000000000
     22939       185  CHL1      H2B            30.8009958844      -25.4639177394      -17.2520400000  MEMB      185             0.0000000000
     22940       185  CHL1      C20            31.2448415172      -27.6514221942       -7.3518000000  MEMB      185             0.0000000000
     22941       185  CHL1      H20            30.6292054107      -26.7860139004       -7.0256300000  MEMB      185             0.0000000000
     22942       185  CHL1      C21            32.6678027863      -27.0835824586       -7.3390300000  MEMB      185             0.0000000000
     22943       185  CHL1      H21A           33.4360820017      -27.8860437285       -7.3278600000  MEMB      185             0.0000000000
     22944       185  CHL1      H21B           32.9169767869      -26.2765701527       -6.6172500000  MEMB      185             0.0000000000
     22945       185  CHL1      H21C           32.6795699268      -26.5022484918       -8.2857200000  MEMB      185             0.0000000000
     22946       185  CHL1      C22            31.0916724201      -28.7296698022       -6.2612600000  MEMB      185             0.0000000000
     22947       185  CHL1      H22A           30.0933174830      -29.2153642048       -6.3025200000  MEMB      185             0.0000000000
     22948       185  CHL1      H22B           31.8393147493      -29.4255234240       -6.6984600000  MEMB      185             0.0000000000
     22949       185  CHL1      C23            31.4340377883      -28.2531413808       -4.8150600000  MEMB      185             0.0000000000
     22950       185  CHL1      H23A           32.4997159301      -27.9499196285       -4.7331500000  MEMB      185             0.0000000000
     22951       185  CHL1      H23B           30.7240915650      -27.4035819438       -4.7225100000  MEMB      185             0.0000000000
     22952       185  CHL1      C24            31.2384047186      -29.3487745067       -3.7659300000  MEMB      185             0.0000000000
     22953       185  CHL1      H24A           30.3698932664      -29.9625504768       -4.0873300000  MEMB      185             0.0000000000
     22954       185  CHL1      H24B           32.0854085812      -30.0640002653       -3.6926300000  MEMB      185             0.0000000000
     22955       185  CHL1      C25            31.1619644545      -28.8368709589       -2.2939800000  MEMB      185             0.0000000000
     22956       185  CHL1      H25            31.0513101348      -29.7926152469       -1.7384300000  MEMB      185             0.0000000000
     22957       185  CHL1      C26            32.4070156864      -28.0998971449       -1.8772400000  MEMB      185             0.0000000000
     22958       185  CHL1      H26A           33.3132676869      -28.7112304391       -2.0754900000  MEMB      185             0.0000000000
     22959       185  CHL1      H26B           32.3789606959      -27.1216378789       -2.4031300000  MEMB      185             0.0000000000
     22960       185  CHL1      H26C           32.2784427696      -28.0107959039       -0.7773100000  MEMB      185             0.0000000000
     22961       185  CHL1      C27            29.8253799019      -28.0436583714       -2.0547200000  MEMB      185             0.0000000000
     22962       185  CHL1      H27A           29.0391058614      -28.8220768227       -1.9538900000  MEMB      185             0.0000000000
     22963       185  CHL1      H27B           29.8790347499      -27.3825258535       -1.1634600000  MEMB      185             0.0000000000
     22964       185  CHL1      H27C           29.6180249046      -27.4299242623       -2.9573000000  MEMB      185             0.0000000000
     22965       186  DOPE      N             -38.6881951863      -16.8599114662      -19.8947797032  MEMB      186             0.0000000000
     22966       186  DOPE      HN1           -38.3526140008      -17.5247492100      -20.6207108702  MEMB      186             0.0000000000
     22967       186  DOPE      HN2           -38.0799437581      -16.6698040211      -19.0728981978  MEMB      186             0.0000000000
     22968       186  DOPE      HN3           -39.6569049785      -17.1415745796      -19.6420596932  MEMB      186             0.0000000000
     22969       186  DOPE      C12           -38.7505212617      -15.4502660850      -20.5452360019  MEMB      186             0.0000000000
     22970       186  DOPE      H12A          -39.6180516921      -15.5096347194      -21.2367468511  MEMB      186             0.0000000000
     22971       186  DOPE      H12B          -37.8577849499      -15.1897516869      -21.1530804653  MEMB      186             0.0000000000
     22972       186  DOPE      C11           -38.9750875036      -14.3709433594      -19.4820207089  MEMB      186             0.0000000000
     22973       186  DOPE      H11A          -39.3759857543      -14.7673853626      -18.5247144288  MEMB      186             0.0000000000
     22974       186  DOPE      H11B          -39.8066948202      -13.7295515163      -19.8444662112  MEMB      186             0.0000000000
     22975       186  DOPE      P             -37.9446810998      -12.3075784729      -18.4149115737  MEMB      186             0.0000000000
     22976       186  DOPE      O13           -38.8720771536      -12.3984489553      -17.2562807332  MEMB      186             0.0000000000
     22977       186  DOPE      O14           -38.2294920469      -11.1759096568      -19.3100066413  MEMB      186             0.0000000000
     22978       186  DOPE      O11           -36.4729221953      -12.2176070432      -17.9159915283  MEMB      186             0.0000000000
     22979       186  DOPE      O12           -37.8005611558      -13.6705629610      -19.1807731126  MEMB      186             0.0000000000
     22980       186  DOPE      C1            -35.4178427484      -12.2472329071      -18.8838294601  MEMB      186             0.0000000000
     22981       186  DOPE      HA            -35.4306529170      -11.4008690174      -19.6034300441  MEMB      186             0.0000000000
     22982       186  DOPE      HB            -35.4421491653      -13.1787591533      -19.4887996838  MEMB      186             0.0000000000
     22983       186  DOPE      C2            -34.0256124204      -12.1960814061      -18.0280928272  MEMB      186             0.0000000000
     22984       186  DOPE      HS            -33.1583341382      -12.4473822920      -18.6753931905  MEMB      186             0.0000000000
     22985       186  DOPE      O21           -34.0492981772      -13.0306177854      -16.9004339104  MEMB      186             0.0000000000
     22986       186  DOPE      C21           -33.8886810011      -14.2989104623      -17.1331115604  MEMB      186             0.0000000000
     22987       186  DOPE      O22           -33.7635425051      -14.9050423846      -18.1816153365  MEMB      186             0.0000000000
     22988       186  DOPE      C22           -33.8957263757      -15.0822211491      -15.7863766829  MEMB      186             0.0000000000
     22989       186  DOPE      H2R           -33.3222629214      -14.5186246327      -15.0196826863  MEMB      186             0.0000000000
     22990       186  DOPE      H2S           -33.4102628015      -16.0697758411      -15.9392875302  MEMB      186             0.0000000000
     22991       186  DOPE      C3            -33.6264643761      -10.7207632573      -17.5818997952  MEMB      186             0.0000000000
     22992       186  DOPE      HX            -33.4607488712      -10.2228103287      -18.5611354001  MEMB      186             0.0000000000
     22993       186  DOPE      HY            -32.6393816769      -10.7138626256      -17.0720552366  MEMB      186             0.0000000000
     22994       186  DOPE      O31           -34.6964420238      -10.0772722328      -16.8292290521  MEMB      186             0.0000000000
     22995       186  DOPE      C31           -34.6376424503      -10.2406858019      -15.5172623672  MEMB      186             0.0000000000
     22996       186  DOPE      O32           -33.7288006144      -10.6360942263      -14.8875573377  MEMB      186             0.0000000000
     22997       186  DOPE      C32           -36.0020556488       -9.8922774960      -14.9544376889  MEMB      186             0.0000000000
     22998       186  DOPE      H2X           -35.9524186144       -9.1134793881      -14.1636593626  MEMB      186             0.0000000000
     22999       186  DOPE      H2Y           -36.6630912824       -9.4504767743      -15.7304306399  MEMB      186             0.0000000000
     23000       186  DOPE      C23           -35.3666674614      -15.3101675086      -15.2392149852  MEMB      186             0.0000000000
     23001       186  DOPE      H3R           -36.0780186717      -15.7965052063      -15.9404825954  MEMB      186             0.0000000000
     23002       186  DOPE      H3S           -35.6248009918      -14.2328052778      -15.1556766644  MEMB      186             0.0000000000
     23003       186  DOPE      C24           -35.3533178881      -15.9603568820      -13.8758025768  MEMB      186             0.0000000000
     23004       186  DOPE      H4R           -34.3634907635      -16.4450706155      -13.7357466875  MEMB      186             0.0000000000
     23005       186  DOPE      H4S           -36.1007791233      -16.7771991022      -13.7841970527  MEMB      186             0.0000000000
     23006       186  DOPE      C25           -35.3514564620      -14.9326486932      -12.6884710284  MEMB      186             0.0000000000
     23007       186  DOPE      H5R           -36.3164770307      -14.3861913856      -12.7551075871  MEMB      186             0.0000000000
     23008       186  DOPE      H5S           -34.4710726447      -14.2568499582      -12.6380582056  MEMB      186             0.0000000000
     23009       186  DOPE      C26           -35.4465878344      -15.7087509820      -11.3387533227  MEMB      186             0.0000000000
     23010       186  DOPE      H6R           -34.3865371652      -15.9996267772      -11.1774930144  MEMB      186             0.0000000000
     23011       186  DOPE      H6S           -35.9999265112      -16.6528879710      -11.5304363245  MEMB      186             0.0000000000
     23012       186  DOPE      C27           -35.8344614348      -14.8601498302      -10.1617826361  MEMB      186             0.0000000000
     23013       186  DOPE      H7R           -35.3962717776      -13.8565491708      -10.3491235071  MEMB      186             0.0000000000
     23014       186  DOPE      H7S           -35.4228258704      -15.2862193790       -9.2219202596  MEMB      186             0.0000000000
     23015       186  DOPE      C28           -37.3299690560      -14.4249917052       -9.9633744040  MEMB      186             0.0000000000
     23016       186  DOPE      H8R           -37.7473668745      -13.9360447429      -10.8694819354  MEMB      186             0.0000000000
     23017       186  DOPE      H8S           -37.4210644120      -13.6615492624       -9.1613899761  MEMB      186             0.0000000000
     23018       186  DOPE      C29           -38.1124936670      -15.6943950659       -9.6763963546  MEMB      186             0.0000000000
     23019       186  DOPE      H9R           -38.3558138649      -16.3380009096      -10.5346310737  MEMB      186             0.0000000000
     23020       186  DOPE      C210          -38.5415531998      -16.1128343230       -8.4464141848  MEMB      186             0.0000000000
     23021       186  DOPE      H10R          -39.2842401628      -16.8981142198       -8.2420823111  MEMB      186             0.0000000000
     23022       186  DOPE      C211          -38.3741504418      -15.4290266259       -7.0807722320  MEMB      186             0.0000000000
     23023       186  DOPE      H11R          -37.8213305018      -14.4919202699       -7.3055891271  MEMB      186             0.0000000000
     23024       186  DOPE      H11S          -37.7543739235      -16.0657574603       -6.4138601611  MEMB      186             0.0000000000
     23025       186  DOPE      C212          -39.6834203645      -15.1068957319       -6.3672175079  MEMB      186             0.0000000000
     23026       186  DOPE      H12R          -40.4468608422      -14.8463985851       -7.1311682718  MEMB      186             0.0000000000
     23027       186  DOPE      H12S          -39.5024847150      -14.1904774370       -5.7657517576  MEMB      186             0.0000000000
     23028       186  DOPE      C213          -40.3460075176      -16.1096634900       -5.3541388311  MEMB      186             0.0000000000
     23029       186  DOPE      H13R          -40.8093937887      -16.9765708869       -5.8718889165  MEMB      186             0.0000000000
     23030       186  DOPE      H13S          -41.1043959014      -15.4626849917       -4.8636413853  MEMB      186             0.0000000000
     23031       186  DOPE      C214          -39.4008144486      -16.6385508766       -4.2249103897  MEMB      186             0.0000000000
     23032       186  DOPE      H14R          -38.3601360515      -16.8290001404       -4.5640845910  MEMB      186             0.0000000000
     23033       186  DOPE      H14S          -39.9249962319      -17.5183260171       -3.7941550476  MEMB      186             0.0000000000
     23034       186  DOPE      C215          -39.2364926117      -15.4570140783       -3.1892684484  MEMB      186             0.0000000000
     23035       186  DOPE      H15R          -40.1752062787      -14.8681558134       -3.1093735318  MEMB      186             0.0000000000
     23036       186  DOPE      H15S          -38.4701066906      -14.7632954706       -3.5963658885  MEMB      186             0.0000000000
     23037       186  DOPE      C216          -38.6584089291      -15.9719951065       -1.8074452091  MEMB      186             0.0000000000
     23038       186  DOPE      H16R          -37.5660677411      -15.8102099432       -1.6852272912  MEMB      186             0.0000000000
     23039       186  DOPE      H16S          -38.8197334510      -17.0700313559       -1.7563418419  MEMB      186             0.0000000000
     23040       186  DOPE      C217          -39.4412719572      -15.4727132420       -0.5704856871  MEMB      186             0.0000000000
     23041       186  DOPE      H17R          -39.3000099995      -14.3731831219       -0.4970072222  MEMB      186             0.0000000000
     23042       186  DOPE      H17S          -38.9787015817      -15.8859643342        0.3512372793  MEMB      186             0.0000000000
     23043       186  DOPE      C218          -40.9336825422      -15.7012225583       -0.6589568697  MEMB      186             0.0000000000
     23044       186  DOPE      H18R          -41.4796833468      -15.2472523964        0.1955108783  MEMB      186             0.0000000000
     23045       186  DOPE      H18S          -41.2018736894      -16.7761576774       -0.7420775460  MEMB      186             0.0000000000
     23046       186  DOPE      H18T          -41.3193628382      -15.0305858957       -1.4563388018  MEMB      186             0.0000000000
     23047       186  DOPE      C33           -36.6121397471      -11.1507997264      -14.4372462492  MEMB      186             0.0000000000
     23048       186  DOPE      H3X           -35.9094635417      -11.4636191381      -13.6355535900  MEMB      186             0.0000000000
     23049       186  DOPE      H3Y           -36.4518637229      -11.9926807021      -15.1442601118  MEMB      186             0.0000000000
     23050       186  DOPE      C34           -38.0173581040      -11.0351440142      -13.9960017025  MEMB      186             0.0000000000
     23051       186  DOPE      H4X           -38.4664581254      -10.4248693642      -14.8085253785  MEMB      186             0.0000000000
     23052       186  DOPE      H4Y           -38.4865867956      -12.0421652429      -13.9886663271  MEMB      186             0.0000000000
     23053       186  DOPE      C35           -38.2149375438      -10.4560757556      -12.5568430816  MEMB      186             0.0000000000
     23054       186  DOPE      H5X           -38.6444529511       -9.4426612199      -12.7079346151  MEMB      186             0.0000000000
     23055       186  DOPE      H5Y           -37.1661198160      -10.4253934137      -12.1916567261  MEMB      186             0.0000000000
     23056       186  DOPE      C36           -39.1217370818      -11.2653712689      -11.5964688651  MEMB      186             0.0000000000
     23057       186  DOPE      H6X           -38.7799201921      -12.3222551614      -11.5745939098  MEMB      186             0.0000000000
     23058       186  DOPE      H6Y           -40.1057381360      -11.0705095383      -12.0740587234  MEMB      186             0.0000000000
     23059       186  DOPE      C37           -39.2522498433      -10.6701407337      -10.1571202581  MEMB      186             0.0000000000
     23060       186  DOPE      H7X           -38.1927475342      -10.5974125971       -9.8307978434  MEMB      186             0.0000000000
     23061       186  DOPE      H7Y           -39.6212254460       -9.6264205942      -10.2510701485  MEMB      186             0.0000000000
     23062       186  DOPE      C38           -40.1677268922      -11.4992726301       -9.2697039806  MEMB      186             0.0000000000
     23063       186  DOPE      H8X           -39.7410219285      -12.5243860799       -9.2324691061  MEMB      186             0.0000000000
     23064       186  DOPE      H8Y           -41.2384588427      -11.6139617197       -9.5430181224  MEMB      186             0.0000000000
     23065       186  DOPE      C39           -40.2977916778      -10.9246970801       -7.8728144426  MEMB      186             0.0000000000
     23066       186  DOPE      H9X           -41.2768560392      -10.5115233432       -7.5887006326  MEMB      186             0.0000000000
     23067       186  DOPE      C310          -39.4045638156      -10.9438537791       -6.8271202255  MEMB      186             0.0000000000
     23068       186  DOPE      H10X          -39.6936969026      -10.6769727187       -5.7999019814  MEMB      186             0.0000000000
     23069       186  DOPE      C311          -38.0471163536      -11.5454485066       -6.9001934313  MEMB      186             0.0000000000
     23070       186  DOPE      H11X          -37.9611644592      -12.3967898759       -6.1915674330  MEMB      186             0.0000000000
     23071       186  DOPE      H11Y          -37.8943048545      -12.0574007054       -7.8742954152  MEMB      186             0.0000000000
     23072       186  DOPE      C312          -36.9608279914      -10.5520036712       -6.6836501357  MEMB      186             0.0000000000
     23073       186  DOPE      H12X          -37.1540599676      -10.0093301084       -5.7336567315  MEMB      186             0.0000000000
     23074       186  DOPE      H12Y          -37.1049660855       -9.9341333696       -7.5956702891  MEMB      186             0.0000000000
     23075       186  DOPE      C313          -35.5248501530      -11.1005025887       -6.8435351619  MEMB      186             0.0000000000
     23076       186  DOPE      H13X          -35.3550073968      -11.3890096704       -7.9028919438  MEMB      186             0.0000000000
     23077       186  DOPE      H13Y          -34.9668636061      -10.2117151024       -6.4788033104  MEMB      186             0.0000000000
     23078       186  DOPE      C314          -35.2512787162      -12.3161930135       -5.9297917973  MEMB      186             0.0000000000
     23079       186  DOPE      H14X          -34.1734552992      -12.5727685620       -6.0121737285  MEMB      186             0.0000000000
     23080       186  DOPE      H14Y          -35.7483212188      -13.2555378018       -6.2536757621  MEMB      186             0.0000000000
     23081       186  DOPE      C315          -35.5977360844      -12.1630019987       -4.4112473473  MEMB      186             0.0000000000
     23082       186  DOPE      H15X          -36.7003975986      -12.0371542225       -4.3600538889  MEMB      186             0.0000000000
     23083       186  DOPE      H15Y          -35.2115845964      -11.1861363147       -4.0493889975  MEMB      186             0.0000000000
     23084       186  DOPE      C316          -35.0555737667      -13.2775632455       -3.5723052468  MEMB      186             0.0000000000
     23085       186  DOPE      H16X          -33.9766567393      -13.3100387697       -3.8353722067  MEMB      186             0.0000000000
     23086       186  DOPE      H16Y          -35.4585994755      -14.2381307913       -3.9585706962  MEMB      186             0.0000000000
     23087       186  DOPE      C317          -35.2101106671      -13.0665303913       -2.0840431751  MEMB      186             0.0000000000
     23088       186  DOPE      H17X          -35.1649599701      -14.1315305279       -1.7709034915  MEMB      186             0.0000000000
     23089       186  DOPE      H17Y          -34.3470615873      -12.4957225382       -1.6795124481  MEMB      186             0.0000000000
     23090       186  DOPE      C318          -36.4468646125      -12.3549438834       -1.5112376301  MEMB      186             0.0000000000
     23091       186  DOPE      H18X          -36.4726577850      -12.5756673828       -0.4226883870  MEMB      186             0.0000000000
     23092       186  DOPE      H18Y          -36.4359188000      -11.2743081082       -1.7689730436  MEMB      186             0.0000000000
     23093       186  DOPE      H18Z          -37.3373263095      -12.8518504323       -1.9522386073  MEMB      186             0.0000000000
     23094       187  DOPC      N              18.9323028436       37.2503755371      -19.2483045161  MEMB      187             0.0000000000
     23095       187  DOPC      C12            18.8139052203       36.3926258101      -17.9812657446  MEMB      187             0.0000000000
     23096       187  DOPC      H12A           17.8886088930       35.8509346052      -18.1108704231  MEMB      187             0.0000000000
     23097       187  DOPC      H12B           18.6886963772       37.0914006602      -17.1673636436  MEMB      187             0.0000000000
     23098       187  DOPC      C13            17.9242274280       38.3043687144      -19.2043020589  MEMB      187             0.0000000000
     23099       187  DOPC      H13A           16.9730790392       37.9615630055      -18.8245641087  MEMB      187             0.0000000000
     23100       187  DOPC      H13B           18.1753244288       39.0428127309      -18.4572741135  MEMB      187             0.0000000000
     23101       187  DOPC      H13C           17.7703134283       38.8036896150      -20.1494947730  MEMB      187             0.0000000000
     23102       187  DOPC      C14            18.8397057501       36.4191803101      -20.4941442677  MEMB      187             0.0000000000
     23103       187  DOPC      H14A           18.8190125607       37.0626324320      -21.3612895745  MEMB      187             0.0000000000
     23104       187  DOPC      H14B           19.7150674650       35.7968845243      -20.6076775895  MEMB      187             0.0000000000
     23105       187  DOPC      H14C           18.0231497084       35.7187384743      -20.3991841589  MEMB      187             0.0000000000
     23106       187  DOPC      C15            20.2793335838       37.8821672752      -19.2663910065  MEMB      187             0.0000000000
     23107       187  DOPC      H15A           20.3326885320       38.6951552959      -18.5574455108  MEMB      187             0.0000000000
     23108       187  DOPC      H15B           20.5155468157       38.3370388207      -20.2170197992  MEMB      187             0.0000000000
     23109       187  DOPC      H15C           20.9917694722       37.0958062685      -19.0652153838  MEMB      187             0.0000000000
     23110       187  DOPC      C11            19.8244640395       35.3176112717      -17.5733709367  MEMB      187             0.0000000000
     23111       187  DOPC      H11A           20.7603080328       35.7411297262      -17.1501107377  MEMB      187             0.0000000000
     23112       187  DOPC      H11B           19.3807885581       34.7454974716      -16.7306616313  MEMB      187             0.0000000000
     23113       187  DOPC      P              21.5575308613       33.9996974666      -19.1193973732  MEMB      187             0.0000000000
     23114       187  DOPC      O13            22.0684001665       34.9837270453      -20.0819732654  MEMB      187             0.0000000000
     23115       187  DOPC      O14            21.4125607710       32.6133710744      -19.6034703094  MEMB      187             0.0000000000
     23116       187  DOPC      O12            20.1235617730       34.4490451982      -18.5985988428  MEMB      187             0.0000000000
     23117       187  DOPC      O11            22.4147246589       33.9821047961      -17.8287816742  MEMB      187             0.0000000000
     23118       187  DOPC      C1             23.4783875236       34.8310594557      -17.6987002090  MEMB      187             0.0000000000
     23119       187  DOPC      HA             23.2107257838       35.9012661869      -17.8303659483  MEMB      187             0.0000000000
     23120       187  DOPC      HB             24.2523798567       34.5793735055      -18.4549483357  MEMB      187             0.0000000000
     23121       187  DOPC      C2             23.9858342137       34.7570371877      -16.2802182302  MEMB      187             0.0000000000
     23122       187  DOPC      HS             24.7161162709       33.9201341277      -16.2556709229  MEMB      187             0.0000000000
     23123       187  DOPC      O21            22.8694770732       34.6552975411      -15.3531888153  MEMB      187             0.0000000000
     23124       187  DOPC      C21            22.4423366953       33.4593728691      -15.1902631902  MEMB      187             0.0000000000
     23125       187  DOPC      O22            22.7837458474       32.4520389620      -15.7454109679  MEMB      187             0.0000000000
     23126       187  DOPC      C22            21.3500355878       33.4553671324      -14.0935439176  MEMB      187             0.0000000000
     23127       187  DOPC      H2R            20.4357216458       33.7748867049      -14.6378402375  MEMB      187             0.0000000000
     23128       187  DOPC      H2S            21.5405586339       34.1260891387      -13.2285849735  MEMB      187             0.0000000000
     23129       187  DOPC      C3             24.8517126579       36.0238645761      -15.9373161515  MEMB      187             0.0000000000
     23130       187  DOPC      HX             25.7092108777       36.1455044445      -16.6331764477  MEMB      187             0.0000000000
     23131       187  DOPC      HY             25.2634100165       35.9892128958      -14.9059939292  MEMB      187             0.0000000000
     23132       187  DOPC      O31            24.1158486760       37.2684651458      -16.1444381938  MEMB      187             0.0000000000
     23133       187  DOPC      C31            24.1598645372       38.1892750876      -15.0600234062  MEMB      187             0.0000000000
     23134       187  DOPC      O32            24.7849405386       38.0436540413      -14.0506871905  MEMB      187             0.0000000000
     23135       187  DOPC      C32            23.0330405154       39.2315278473      -15.2744705459  MEMB      187             0.0000000000
     23136       187  DOPC      H2X            23.1541571135       40.0368008178      -14.5187012168  MEMB      187             0.0000000000
     23137       187  DOPC      H2Y            23.2829779772       39.7311605858      -16.2347931871  MEMB      187             0.0000000000
     23138       187  DOPC      C23            20.9769905254       32.0168932384      -13.6951448201  MEMB      187             0.0000000000
     23139       187  DOPC      H3R            21.8077792904       31.4929801485      -13.1758891419  MEMB      187             0.0000000000
     23140       187  DOPC      H3S            20.7355223494       31.6421006563      -14.7127619661  MEMB      187             0.0000000000
     23141       187  DOPC      C24            19.7641727850       31.7829029694      -12.7553873351  MEMB      187             0.0000000000
     23142       187  DOPC      H4R            19.7939039380       30.7306176752      -12.4002360748  MEMB      187             0.0000000000
     23143       187  DOPC      H4S            18.8745837202       31.9979730350      -13.3852265756  MEMB      187             0.0000000000
     23144       187  DOPC      C25            19.6200642692       32.6559476413      -11.5131763192  MEMB      187             0.0000000000
     23145       187  DOPC      H5R            18.6367613131       32.6015229351      -10.9989056365  MEMB      187             0.0000000000
     23146       187  DOPC      H5S            19.7328791707       33.7199235763      -11.8124235109  MEMB      187             0.0000000000
     23147       187  DOPC      C26            20.6614652860       32.4288868227      -10.4043995749  MEMB      187             0.0000000000
     23148       187  DOPC      H6R            20.5713312310       33.3251791780       -9.7541250299  MEMB      187             0.0000000000
     23149       187  DOPC      H6S            21.6766248584       32.3568815484      -10.8500309781  MEMB      187             0.0000000000
     23150       187  DOPC      C27            20.3342031117       31.1657854890       -9.5307754487  MEMB      187             0.0000000000
     23151       187  DOPC      H7R            20.4449146777       30.2118192446      -10.0893558281  MEMB      187             0.0000000000
     23152       187  DOPC      H7S            19.2461736544       31.1435981260       -9.3071238143  MEMB      187             0.0000000000
     23153       187  DOPC      C28            21.1820093718       31.2133459666       -8.2225103680  MEMB      187             0.0000000000
     23154       187  DOPC      H8R            22.2371855974       31.2040255106       -8.5701271843  MEMB      187             0.0000000000
     23155       187  DOPC      H8S            20.7864682074       30.2649294268       -7.8001657900  MEMB      187             0.0000000000
     23156       187  DOPC      C29            20.9313615619       32.3809654711       -7.2820084435  MEMB      187             0.0000000000
     23157       187  DOPC      H9R            19.9531293065       32.3028282928       -6.7850613191  MEMB      187             0.0000000000
     23158       187  DOPC      C210           21.7238282725       33.3964822292       -7.0046058078  MEMB      187             0.0000000000
     23159       187  DOPC      H10R           21.3801931560       34.0940416545       -6.2265794694  MEMB      187             0.0000000000
     23160       187  DOPC      C211           23.1009092290       33.6606384029       -7.6374121036  MEMB      187             0.0000000000
     23161       187  DOPC      H11R           23.4713220375       32.8080185038       -8.2458159637  MEMB      187             0.0000000000
     23162       187  DOPC      H11S           23.7311940952       33.6900398922       -6.7229738461  MEMB      187             0.0000000000
     23163       187  DOPC      C212           23.0646161751       34.9506662236       -8.4628966981  MEMB      187             0.0000000000
     23164       187  DOPC      H12R           22.3640855945       34.8561456539       -9.3200103203  MEMB      187             0.0000000000
     23165       187  DOPC      H12S           24.0785921300       34.9402071939       -8.9168394065  MEMB      187             0.0000000000
     23166       187  DOPC      C213           23.0966309575       36.2620376955       -7.7315963597  MEMB      187             0.0000000000
     23167       187  DOPC      H13R           22.4537548939       36.1614136594       -6.8310925020  MEMB      187             0.0000000000
     23168       187  DOPC      H13S           22.7440308323       37.0261003889       -8.4569938628  MEMB      187             0.0000000000
     23169       187  DOPC      C214           24.5035540640       36.5835091791       -7.0405660747  MEMB      187             0.0000000000
     23170       187  DOPC      H14R           25.3815612757       36.6630988210       -7.7166500401  MEMB      187             0.0000000000
     23171       187  DOPC      H14S           24.8218459349       35.7037767944       -6.4413316923  MEMB      187             0.0000000000
     23172       187  DOPC      C215           24.4664989076       37.7788560428       -6.2077900546  MEMB      187             0.0000000000
     23173       187  DOPC      H15R           24.4311506622       38.7110446788       -6.8111934967  MEMB      187             0.0000000000
     23174       187  DOPC      H15S           25.4085276878       37.8161548664       -5.6199872258  MEMB      187             0.0000000000
     23175       187  DOPC      C216           23.4398389096       37.7694878772       -5.0774077184  MEMB      187             0.0000000000
     23176       187  DOPC      H16R           23.4408465113       36.8387840230       -4.4706862470  MEMB      187             0.0000000000
     23177       187  DOPC      H16S           22.4522146233       37.7810892525       -5.5861155884  MEMB      187             0.0000000000
     23178       187  DOPC      C217           23.4149737009       38.9880664575       -4.0997054120  MEMB      187             0.0000000000
     23179       187  DOPC      H17R           22.3629457798       38.9600608258       -3.7436514932  MEMB      187             0.0000000000
     23180       187  DOPC      H17S           23.6192827971       39.8601319086       -4.7570335220  MEMB      187             0.0000000000
     23181       187  DOPC      C218           24.5403751860       38.9582873000       -3.0515341146  MEMB      187             0.0000000000
     23182       187  DOPC      H18R           24.4602058198       39.9777910657       -2.6173599444  MEMB      187             0.0000000000
     23183       187  DOPC      H18S           25.5462532035       38.9644541786       -3.5232247556  MEMB      187             0.0000000000
     23184       187  DOPC      H18T           24.3905281945       38.1460674321       -2.3084544476  MEMB      187             0.0000000000
     23185       187  DOPC      C33            21.6803186181       38.4773405883      -15.4010024291  MEMB      187             0.0000000000
     23186       187  DOPC      H3X            21.5754283827       37.4789190031      -15.8768950197  MEMB      187             0.0000000000
     23187       187  DOPC      H3Y            21.1648346240       39.2261697327      -16.0396354779  MEMB      187             0.0000000000
     23188       187  DOPC      C34            20.9492008722       38.5167718306      -14.0418444830  MEMB      187             0.0000000000
     23189       187  DOPC      H4X            19.8577799242       38.4379227676      -14.2339495267  MEMB      187             0.0000000000
     23190       187  DOPC      H4Y            21.3329372943       39.3987611972      -13.4858211387  MEMB      187             0.0000000000
     23191       187  DOPC      C35            21.3296468306       37.3457074914      -13.1708178226  MEMB      187             0.0000000000
     23192       187  DOPC      H5X            22.3637146531       37.5609312039      -12.8262840858  MEMB      187             0.0000000000
     23193       187  DOPC      H5Y            21.3922240758       36.4355822743      -13.8049136228  MEMB      187             0.0000000000
     23194       187  DOPC      C36            20.4589048662       37.0510652544      -11.9047606258  MEMB      187             0.0000000000
     23195       187  DOPC      H6X            19.4211279782       36.9220142634      -12.2798418811  MEMB      187             0.0000000000
     23196       187  DOPC      H6Y            20.8860731261       36.1462254877      -11.4219425152  MEMB      187             0.0000000000
     23197       187  DOPC      C37            20.4867781497       38.1329280302      -10.8782308146  MEMB      187             0.0000000000
     23198       187  DOPC      H7X            21.5394851740       38.4856631192      -10.8369190864  MEMB      187             0.0000000000
     23199       187  DOPC      H7Y            19.8378082197       38.9759341906      -11.1983863753  MEMB      187             0.0000000000
     23200       187  DOPC      C38            20.0583751131       37.6931856161       -9.4528925858  MEMB      187             0.0000000000
     23201       187  DOPC      H8X            20.4862015552       38.4469441889       -8.7578142178  MEMB      187             0.0000000000
     23202       187  DOPC      H8Y            20.5110797651       36.7261618135       -9.1458993673  MEMB      187             0.0000000000
     23203       187  DOPC      C39            18.5851412592       37.7417863514       -9.0999377770  MEMB      187             0.0000000000
     23204       187  DOPC      H9X            17.9386847301       38.3186950656       -9.7776326272  MEMB      187             0.0000000000
     23205       187  DOPC      C310           18.0532278844       37.0347665083       -8.0768378985  MEMB      187             0.0000000000
     23206       187  DOPC      H10X           16.9582455409       37.1136382476       -8.0076054605  MEMB      187             0.0000000000
     23207       187  DOPC      C311           18.8339537371       36.2150860320       -7.1132219949  MEMB      187             0.0000000000
     23208       187  DOPC      H11X           19.9004108655       36.3924106009       -7.3692416763  MEMB      187             0.0000000000
     23209       187  DOPC      H11Y           18.6475777547       35.1243254996       -7.2123507743  MEMB      187             0.0000000000
     23210       187  DOPC      C312           18.5074832901       36.5432497755       -5.6384704613  MEMB      187             0.0000000000
     23211       187  DOPC      H12X           17.4246078820       36.3566870875       -5.4744705248  MEMB      187             0.0000000000
     23212       187  DOPC      H12Y           18.7113154904       37.6060793170       -5.3871396636  MEMB      187             0.0000000000
     23213       187  DOPC      C313           19.2864876566       35.6215820986       -4.6042505598  MEMB      187             0.0000000000
     23214       187  DOPC      H13X           18.8555912641       34.6112288874       -4.4374096754  MEMB      187             0.0000000000
     23215       187  DOPC      H13Y           20.3119618041       35.5809943634       -5.0297809077  MEMB      187             0.0000000000
     23216       187  DOPC      C314           19.5159771325       36.3368047333       -3.2741609521  MEMB      187             0.0000000000
     23217       187  DOPC      H14X           20.1748708743       35.7198889396       -2.6263992819  MEMB      187             0.0000000000
     23218       187  DOPC      H14Y           20.1289232584       37.1981711550       -3.6157250721  MEMB      187             0.0000000000
     23219       187  DOPC      C315           18.1979612087       36.8360390919       -2.6213583050  MEMB      187             0.0000000000
     23220       187  DOPC      H15X           17.4662749013       36.0041356100       -2.5383362059  MEMB      187             0.0000000000
     23221       187  DOPC      H15Y           17.6263056074       37.5907569155       -3.2026764067  MEMB      187             0.0000000000
     23222       187  DOPC      C316           18.2381331200       37.4360226682       -1.1939174744  MEMB      187             0.0000000000
     23223       187  DOPC      H16X           18.8662627979       38.3497285608       -1.1238038479  MEMB      187             0.0000000000
     23224       187  DOPC      H16Y           17.1963903865       37.7348102157       -0.9493386746  MEMB      187             0.0000000000
     23225       187  DOPC      C317           18.7739373024       36.4125435917       -0.2249479948  MEMB      187             0.0000000000
     23226       187  DOPC      H17X           18.3735024996       35.3894494941       -0.3900259637  MEMB      187             0.0000000000
     23227       187  DOPC      H17Y           19.8547544865       36.2599237701       -0.4319790078  MEMB      187             0.0000000000
     23228       187  DOPC      C318           18.6611666576       36.8817486529        1.1721915366  MEMB      187             0.0000000000
     23229       187  DOPC      H18X           18.9851485371       36.1302502671        1.9235942667  MEMB      187             0.0000000000
     23230       187  DOPC      H18Y           19.2323059690       37.8111456248        1.3827649060  MEMB      187             0.0000000000
     23231       187  DOPC      H18Z           17.5928712038       36.9904567099        1.4572310623  MEMB      187             0.0000000000
     23232       188  DOPE      N              36.6532498754       20.5805612854      -21.7995039947  MEMB      188             0.0000000000
     23233       188  DOPE      HN1            35.7265295776       20.1469992189      -21.6129202660  MEMB      188             0.0000000000
     23234       188  DOPE      HN2            36.8838668916       20.7989272777      -22.7898229580  MEMB      188             0.0000000000
     23235       188  DOPE      HN3            37.3545355795       19.9602841640      -21.3466742411  MEMB      188             0.0000000000
     23236       188  DOPE      C12            36.4887105036       21.8464423974      -21.0163721016  MEMB      188             0.0000000000
     23237       188  DOPE      H12A           35.7034306769       22.5236502153      -21.4151781361  MEMB      188             0.0000000000
     23238       188  DOPE      H12B           37.4583140166       22.3687492364      -21.1626104910  MEMB      188             0.0000000000
     23239       188  DOPE      C11            36.2777294488       21.4619504006      -19.5636125647  MEMB      188             0.0000000000
     23240       188  DOPE      H11A           36.0167033324       22.4110288571      -19.0484074006  MEMB      188             0.0000000000
     23241       188  DOPE      H11B           37.2336320129       21.0247182562      -19.2038913612  MEMB      188             0.0000000000
     23242       188  DOPE      P              34.6958590231       20.4023414813      -17.8687835309  MEMB      188             0.0000000000
     23243       188  DOPE      O13            33.3777430421       19.6724551027      -17.8976277533  MEMB      188             0.0000000000
     23244       188  DOPE      O14            34.7328866921       21.6414740739      -17.1046703855  MEMB      188             0.0000000000
     23245       188  DOPE      O11            35.8605191963       19.4854175744      -17.3342274872  MEMB      188             0.0000000000
     23246       188  DOPE      O12            35.2125126167       20.4938248876      -19.4152021833  MEMB      188             0.0000000000
     23247       188  DOPE      C1             36.1292326632       18.2987228639      -18.0879365436  MEMB      188             0.0000000000
     23248       188  DOPE      HA             36.3983068582       18.5074191637      -19.1454647574  MEMB      188             0.0000000000
     23249       188  DOPE      HB             35.1968213081       17.6950226796      -18.0661118357  MEMB      188             0.0000000000
     23250       188  DOPE      C2             37.1770002514       17.4494919121      -17.3901268280  MEMB      188             0.0000000000
     23251       188  DOPE      HS             37.3810288261       16.4804596373      -17.8937830648  MEMB      188             0.0000000000
     23252       188  DOPE      O21            36.9118499430       17.1182419404      -16.0316189067  MEMB      188             0.0000000000
     23253       188  DOPE      C21            35.9963482998       16.2745512060      -15.7574866871  MEMB      188             0.0000000000
     23254       188  DOPE      O22            35.1786319313       15.7636663803      -16.4715089122  MEMB      188             0.0000000000
     23255       188  DOPE      C22            36.0281724896       15.9925688719      -14.2823390036  MEMB      188             0.0000000000
     23256       188  DOPE      H2R            36.9757650871       16.2883427213      -13.7834331777  MEMB      188             0.0000000000
     23257       188  DOPE      H2S            35.7756520912       14.9158034045      -14.1768379552  MEMB      188             0.0000000000
     23258       188  DOPE      C3             38.6204856129       17.9610718032      -17.3240107973  MEMB      188             0.0000000000
     23259       188  DOPE      HX             38.9075912877       18.2569495808      -18.3556830448  MEMB      188             0.0000000000
     23260       188  DOPE      HY             39.3224403832       17.2364448673      -16.8587192732  MEMB      188             0.0000000000
     23261       188  DOPE      O31            38.5902219545       19.1637356806      -16.6163090127  MEMB      188             0.0000000000
     23262       188  DOPE      C31            39.7372290476       19.8297123075      -16.5218663253  MEMB      188             0.0000000000
     23263       188  DOPE      O32            40.7942379001       19.5550953573      -16.9758643102  MEMB      188             0.0000000000
     23264       188  DOPE      C32            39.4749159607       21.1896956908      -15.8575274683  MEMB      188             0.0000000000
     23265       188  DOPE      H2X            40.3924355266       21.7573202035      -15.5924215611  MEMB      188             0.0000000000
     23266       188  DOPE      H2Y            38.9128464830       21.8182017668      -16.5809768291  MEMB      188             0.0000000000
     23267       188  DOPE      C23            34.8167443614       16.6584174970      -13.4917168036  MEMB      188             0.0000000000
     23268       188  DOPE      H3R            34.5390733836       15.8000501772      -12.8433148175  MEMB      188             0.0000000000
     23269       188  DOPE      H3S            34.0093952647       16.9707808174      -14.1880914570  MEMB      188             0.0000000000
     23270       188  DOPE      C24            35.2826251058       17.8787107385      -12.6775528965  MEMB      188             0.0000000000
     23271       188  DOPE      H4R            35.8968262383       18.5804680889      -13.2813857902  MEMB      188             0.0000000000
     23272       188  DOPE      H4S            35.8762142977       17.5473283635      -11.7988272183  MEMB      188             0.0000000000
     23273       188  DOPE      C25            34.0725872227       18.6888134058      -12.2146681226  MEMB      188             0.0000000000
     23274       188  DOPE      H5R            33.5750612482       18.1492242775      -11.3806220633  MEMB      188             0.0000000000
     23275       188  DOPE      H5S            33.3124026146       18.9048030117      -12.9955577211  MEMB      188             0.0000000000
     23276       188  DOPE      C26            34.2468491990       20.0985676796      -11.5261761474  MEMB      188             0.0000000000
     23277       188  DOPE      H6R            34.9781346329       20.7409119097      -12.0618407009  MEMB      188             0.0000000000
     23278       188  DOPE      H6S            34.8280560954       19.8121811059      -10.6236785713  MEMB      188             0.0000000000
     23279       188  DOPE      C27            32.9678254263       20.8408788085      -11.2652491933  MEMB      188             0.0000000000
     23280       188  DOPE      H7R            32.1465780529       20.1725694938      -10.9287435247  MEMB      188             0.0000000000
     23281       188  DOPE      H7S            32.6471832469       21.4936413796      -12.1051364571  MEMB      188             0.0000000000
     23282       188  DOPE      C28            33.0803908301       21.8153068265      -10.1116821107  MEMB      188             0.0000000000
     23283       188  DOPE      H8R            33.2056010342       21.1878780149       -9.2034003555  MEMB      188             0.0000000000
     23284       188  DOPE      H8S            32.0754708007       22.2879967629      -10.1436370336  MEMB      188             0.0000000000
     23285       188  DOPE      C29            34.2178161169       22.7395212337      -10.2660171530  MEMB      188             0.0000000000
     23286       188  DOPE      H9R            35.0352294925       22.4828290986      -10.9559044634  MEMB      188             0.0000000000
     23287       188  DOPE      C210           34.3296198600       23.8602091071       -9.5108176832  MEMB      188             0.0000000000
     23288       188  DOPE      H10R           35.2645598650       24.4266721532       -9.6333205346  MEMB      188             0.0000000000
     23289       188  DOPE      C211           33.4618858059       24.4231630773       -8.3971491040  MEMB      188             0.0000000000
     23290       188  DOPE      H11R           32.8357082935       23.5882214923       -8.0162353092  MEMB      188             0.0000000000
     23291       188  DOPE      H11S           32.8955949487       25.2977940153       -8.7827089937  MEMB      188             0.0000000000
     23292       188  DOPE      C212           34.2092226748       24.9309712902       -7.1000599124  MEMB      188             0.0000000000
     23293       188  DOPE      H12R           33.4501622908       25.4535944430       -6.4795660889  MEMB      188             0.0000000000
     23294       188  DOPE      H12S           34.9663957828       25.6765140581       -7.4243687397  MEMB      188             0.0000000000
     23295       188  DOPE      C213           34.8109727125       23.9135514808       -6.2050314252  MEMB      188             0.0000000000
     23296       188  DOPE      H13R           35.3608117080       24.4437242291       -5.3982388094  MEMB      188             0.0000000000
     23297       188  DOPE      H13S           35.6252443049       23.5350030642       -6.8592358579  MEMB      188             0.0000000000
     23298       188  DOPE      C214           33.9798302995       22.7740577094       -5.6433396644  MEMB      188             0.0000000000
     23299       188  DOPE      H14R           33.2149030677       22.4528122865       -6.3822634286  MEMB      188             0.0000000000
     23300       188  DOPE      H14S           33.3679031122       23.2229400979       -4.8319387173  MEMB      188             0.0000000000
     23301       188  DOPE      C215           34.7893296760       21.5439220508       -5.1713384055  MEMB      188             0.0000000000
     23302       188  DOPE      H15R           35.5915511171       21.7048138302       -4.4197562866  MEMB      188             0.0000000000
     23303       188  DOPE      H15S           35.2367141650       21.1744401140       -6.1187821148  MEMB      188             0.0000000000
     23304       188  DOPE      C216           33.7801393660       20.4785276589       -4.5830674974  MEMB      188             0.0000000000
     23305       188  DOPE      H16R           34.4406286814       19.6056259578       -4.3930209130  MEMB      188             0.0000000000
     23306       188  DOPE      H16S           33.0011321971       20.0219648861       -5.2303844051  MEMB      188             0.0000000000
     23307       188  DOPE      C217           33.0634916742       20.9635119044       -3.3099019760  MEMB      188             0.0000000000
     23308       188  DOPE      H17R           32.0067747427       20.6735299304       -3.4931520161  MEMB      188             0.0000000000
     23309       188  DOPE      H17S           33.1972970940       22.0657951227       -3.2726363806  MEMB      188             0.0000000000
     23310       188  DOPE      C218           33.4965282008       20.2592387308       -1.9869124813  MEMB      188             0.0000000000
     23311       188  DOPE      H18R           33.5490345146       19.1674433014       -2.1857745748  MEMB      188             0.0000000000
     23312       188  DOPE      H18S           32.6749948650       20.3629021857       -1.2461978305  MEMB      188             0.0000000000
     23313       188  DOPE      H18T           34.4993340204       20.5672564424       -1.6210895379  MEMB      188             0.0000000000
     23314       188  DOPE      C33            38.5437210061       21.0416895400      -14.6302353327  MEMB      188             0.0000000000
     23315       188  DOPE      H3X            37.5395262639       20.6218989132      -14.8531478664  MEMB      188             0.0000000000
     23316       188  DOPE      H3Y            38.3683107017       22.0906082207      -14.3087985727  MEMB      188             0.0000000000
     23317       188  DOPE      C34            39.2927756097       20.2857955370      -13.5246564514  MEMB      188             0.0000000000
     23318       188  DOPE      H4X            39.2877340246       19.2386711330      -13.8959059206  MEMB      188             0.0000000000
     23319       188  DOPE      H4Y            40.3336804177       20.6313354265      -13.3473428413  MEMB      188             0.0000000000
     23320       188  DOPE      C35            38.7413030885       20.4271000747      -12.0595074981  MEMB      188             0.0000000000
     23321       188  DOPE      H5X            37.6359468689       20.3459386470      -11.9825562534  MEMB      188             0.0000000000
     23322       188  DOPE      H5Y            39.0327212216       21.4620141086      -11.7795975207  MEMB      188             0.0000000000
     23323       188  DOPE      C36            39.3803257681       19.4928144170      -10.9979884598  MEMB      188             0.0000000000
     23324       188  DOPE      H6X            40.4724457391       19.6063494929      -11.1674129197  MEMB      188             0.0000000000
     23325       188  DOPE      H6Y            39.1211325306       18.4274437402      -11.1772234691  MEMB      188             0.0000000000
     23326       188  DOPE      C37            39.0019280556       19.6674692119       -9.5170799687  MEMB      188             0.0000000000
     23327       188  DOPE      H7X            39.6986683860       19.1300127574       -8.8388364444  MEMB      188             0.0000000000
     23328       188  DOPE      H7Y            39.2327263726       20.7328725643       -9.3026772501  MEMB      188             0.0000000000
     23329       188  DOPE      C38            37.5448990148       19.3174098274       -9.1796980581  MEMB      188             0.0000000000
     23330       188  DOPE      H8X            36.8631816219       19.8403582597       -9.8840473787  MEMB      188             0.0000000000
     23331       188  DOPE      H8Y            37.3382535489       19.8262310567       -8.2139240640  MEMB      188             0.0000000000
     23332       188  DOPE      C39            37.2344920258       17.8429899604       -9.2093516029  MEMB      188             0.0000000000
     23333       188  DOPE      H9X            37.4160625540       17.4346624355      -10.2144884392  MEMB      188             0.0000000000
     23334       188  DOPE      C310           36.8678753007       17.0537646649       -8.1421472075  MEMB      188             0.0000000000
     23335       188  DOPE      H10X           36.7265783552       15.9718643273       -8.2818882050  MEMB      188             0.0000000000
     23336       188  DOPE      C311           36.6771175109       17.4378743305       -6.6446641364  MEMB      188             0.0000000000
     23337       188  DOPE      H11X           36.1012022100       18.3867460261       -6.5968600349  MEMB      188             0.0000000000
     23338       188  DOPE      H11Y           35.9649416046       16.7097095889       -6.2009263400  MEMB      188             0.0000000000
     23339       188  DOPE      C312           37.9039801706       17.6126068579       -5.8086714141  MEMB      188             0.0000000000
     23340       188  DOPE      H12X           38.5992510154       18.4112610378       -6.1449318790  MEMB      188             0.0000000000
     23341       188  DOPE      H12Y           38.5325361761       16.7015061333       -5.9042434484  MEMB      188             0.0000000000
     23342       188  DOPE      C313           37.6332892253       18.0334745617       -4.3923389282  MEMB      188             0.0000000000
     23343       188  DOPE      H13X           36.6184753413       17.6833445800       -4.1061871332  MEMB      188             0.0000000000
     23344       188  DOPE      H13Y           38.3539821777       17.5268176503       -3.7154186350  MEMB      188             0.0000000000
     23345       188  DOPE      C314           37.8357521455       19.5532264864       -4.0798509560  MEMB      188             0.0000000000
     23346       188  DOPE      H14X           37.1351140976       20.2078731978       -4.6409790362  MEMB      188             0.0000000000
     23347       188  DOPE      H14Y           38.8888257134       19.7715838739       -4.3585570501  MEMB      188             0.0000000000
     23348       188  DOPE      C315           37.8272755730       19.9227463582       -2.6019214275  MEMB      188             0.0000000000
     23349       188  DOPE      H15X           38.5823558457       19.2579311187       -2.1305460149  MEMB      188             0.0000000000
     23350       188  DOPE      H15Y           36.8271075080       19.8047731048       -2.1328088539  MEMB      188             0.0000000000
     23351       188  DOPE      C316           38.3267936160       21.3260418326       -2.3746405974  MEMB      188             0.0000000000
     23352       188  DOPE      H16X           37.7619105289       21.9895525804       -3.0638296265  MEMB      188             0.0000000000
     23353       188  DOPE      H16Y           39.3750218619       21.4176474042       -2.7312174221  MEMB      188             0.0000000000
     23354       188  DOPE      C317           37.9912932589       22.0046606272       -1.0371516042  MEMB      188             0.0000000000
     23355       188  DOPE      H17X           38.1483259713       23.1037621683       -1.0776193175  MEMB      188             0.0000000000
     23356       188  DOPE      H17Y           36.9147567868       21.8502530844       -0.8101088163  MEMB      188             0.0000000000
     23357       188  DOPE      C318           38.7730571456       21.5114341247        0.1468631848  MEMB      188             0.0000000000
     23358       188  DOPE      H18X           38.4805282150       22.0456292781        1.0760490703  MEMB      188             0.0000000000
     23359       188  DOPE      H18Y           38.7095973605       20.4161402753        0.3218637259  MEMB      188             0.0000000000
     23360       188  DOPE      H18Z           39.8285518879       21.7950191642       -0.0527144030  MEMB      188             0.0000000000
     23361       189  DOPC      N             -30.5836677456      -27.0969185988      -20.5388121391  MEMB      189             0.0000000000
     23362       189  DOPC      C12           -29.2112739744      -27.7190748351      -20.2241726064  MEMB      189             0.0000000000
     23363       189  DOPC      H12A          -28.6267009983      -26.9822073650      -19.6934177626  MEMB      189             0.0000000000
     23364       189  DOPC      H12B          -28.6547859591      -27.8487482047      -21.1406364431  MEMB      189             0.0000000000
     23365       189  DOPC      C13           -31.4839667466      -28.2386769950      -20.9297340817  MEMB      189             0.0000000000
     23366       189  DOPC      H13A          -30.9771211224      -28.8057843127      -21.6964781462  MEMB      189             0.0000000000
     23367       189  DOPC      H13B          -31.6292537332      -28.7734777579      -20.0027604537  MEMB      189             0.0000000000
     23368       189  DOPC      H13C          -32.4349587206      -27.8523068219      -21.2654904686  MEMB      189             0.0000000000
     23369       189  DOPC      C14           -30.4256798016      -26.3445301478      -21.8554460273  MEMB      189             0.0000000000
     23370       189  DOPC      H14A          -30.3347830174      -27.0303441147      -22.6847811524  MEMB      189             0.0000000000
     23371       189  DOPC      H14B          -31.2851041108      -25.7130499861      -22.0258062700  MEMB      189             0.0000000000
     23372       189  DOPC      H14C          -29.5516271999      -25.7177050825      -21.7578636289  MEMB      189             0.0000000000
     23373       189  DOPC      C15           -31.1004398553      -26.2383922096      -19.4169278960  MEMB      189             0.0000000000
     23374       189  DOPC      H15A          -32.0824031728      -25.9090212296      -19.7229717841  MEMB      189             0.0000000000
     23375       189  DOPC      H15B          -30.5973444962      -25.2870429947      -19.3262098060  MEMB      189             0.0000000000
     23376       189  DOPC      H15C          -30.9711643341      -26.7273251536      -18.4626572889  MEMB      189             0.0000000000
     23377       189  DOPC      C11           -29.2120608955      -29.0128874768      -19.3187689090  MEMB      189             0.0000000000
     23378       189  DOPC      H11A          -29.7252127780      -29.8396822531      -19.8548719953  MEMB      189             0.0000000000
     23379       189  DOPC      H11B          -28.2052278181      -29.2980670671      -18.9455655039  MEMB      189             0.0000000000
     23380       189  DOPC      P             -30.4570424701      -29.8988639054      -17.2542220276  MEMB      189             0.0000000000
     23381       189  DOPC      O13           -30.7399963338      -29.4654233686      -15.8835717211  MEMB      189             0.0000000000
     23382       189  DOPC      O14           -29.4026583371      -30.9102135907      -17.3296620388  MEMB      189             0.0000000000
     23383       189  DOPC      O12           -29.9924847135      -28.6954162239      -18.1771630816  MEMB      189             0.0000000000
     23384       189  DOPC      O11           -31.7478071469      -30.3755710216      -18.0715194684  MEMB      189             0.0000000000
     23385       189  DOPC      C1            -32.1138613380      -31.7878413419      -17.8223012137  MEMB      189             0.0000000000
     23386       189  DOPC      HA            -31.4182979664      -32.2861252775      -17.1136224633  MEMB      189             0.0000000000
     23387       189  DOPC      HB            -32.1282462236      -32.2636072532      -18.8261741072  MEMB      189             0.0000000000
     23388       189  DOPC      C2            -33.5470857483      -31.9377826893      -17.1789866334  MEMB      189             0.0000000000
     23389       189  DOPC      HS            -34.3571211892      -31.5939470901      -17.8571758119  MEMB      189             0.0000000000
     23390       189  DOPC      O21           -33.7350191106      -31.2424353740      -15.9011134800  MEMB      189             0.0000000000
     23391       189  DOPC      C21           -33.9284770669      -29.8635967527      -15.9360314800  MEMB      189             0.0000000000
     23392       189  DOPC      O22           -33.9025875519      -29.1883995683      -16.9264873828  MEMB      189             0.0000000000
     23393       189  DOPC      C22           -34.3018284498      -29.3667780021      -14.5327521334  MEMB      189             0.0000000000
     23394       189  DOPC      H2R           -35.3790773984      -29.5599770092      -14.3416227445  MEMB      189             0.0000000000
     23395       189  DOPC      H2S           -34.2818043862      -28.2563144366      -14.5046314480  MEMB      189             0.0000000000
     23396       189  DOPC      C3            -33.8438382646      -33.4250414856      -16.9486805542  MEMB      189             0.0000000000
     23397       189  DOPC      HX            -33.6087648440      -33.9787608146      -17.8827343662  MEMB      189             0.0000000000
     23398       189  DOPC      HY            -34.8926595321      -33.6608560702      -16.6681692863  MEMB      189             0.0000000000
     23399       189  DOPC      O31           -32.9911949952      -33.9423641415      -15.9127876921  MEMB      189             0.0000000000
     23400       189  DOPC      C31           -33.3504541073      -33.8743717936      -14.6659347759  MEMB      189             0.0000000000
     23401       189  DOPC      O32           -34.4954855789      -33.5659784571      -14.2746541036  MEMB      189             0.0000000000
     23402       189  DOPC      C32           -32.1673800685      -34.2890692507      -13.6985517119  MEMB      189             0.0000000000
     23403       189  DOPC      H2X           -32.4963505088      -34.3407601075      -12.6386333041  MEMB      189             0.0000000000
     23404       189  DOPC      H2Y           -31.6848768232      -35.2423201639      -14.0032216040  MEMB      189             0.0000000000
     23405       189  DOPC      C23           -33.3556665303      -29.8799956768      -13.3187751225  MEMB      189             0.0000000000
     23406       189  DOPC      H3R           -32.4321339763      -30.4173587055      -13.6231588984  MEMB      189             0.0000000000
     23407       189  DOPC      H3S           -33.9326914928      -30.5722046559      -12.6689984362  MEMB      189             0.0000000000
     23408       189  DOPC      C24           -32.9244335478      -28.6236471345      -12.5771738070  MEMB      189             0.0000000000
     23409       189  DOPC      H4R           -33.7886263741      -28.1640952896      -12.0515276959  MEMB      189             0.0000000000
     23410       189  DOPC      H4S           -32.5979283167      -28.0234232452      -13.4532139507  MEMB      189             0.0000000000
     23411       189  DOPC      C25           -31.8999271070      -28.7917747531      -11.4558666549  MEMB      189             0.0000000000
     23412       189  DOPC      H5R           -31.0171960075      -29.2993621383      -11.9002334562  MEMB      189             0.0000000000
     23413       189  DOPC      H5S           -32.2147740951      -29.4980031455      -10.6580985136  MEMB      189             0.0000000000
     23414       189  DOPC      C26           -31.6263286452      -27.4034372028      -10.9027917850  MEMB      189             0.0000000000
     23415       189  DOPC      H6R           -32.6085236842      -27.0787196428      -10.4976099889  MEMB      189             0.0000000000
     23416       189  DOPC      H6S           -31.4087684236      -26.7541417710      -11.7776656564  MEMB      189             0.0000000000
     23417       189  DOPC      C27           -30.4345481246      -27.4396129256       -9.9215069602  MEMB      189             0.0000000000
     23418       189  DOPC      H7R           -30.1504643059      -26.4331097014       -9.5465830476  MEMB      189             0.0000000000
     23419       189  DOPC      H7S           -29.6375178192      -27.8385503703      -10.5847661283  MEMB      189             0.0000000000
     23420       189  DOPC      C28           -30.5560261205      -28.2719115214       -8.5812225245  MEMB      189             0.0000000000
     23421       189  DOPC      H8R           -29.5091887254      -28.1592204787       -8.2266057872  MEMB      189             0.0000000000
     23422       189  DOPC      H8S           -30.8029178911      -29.3470330905       -8.7134320313  MEMB      189             0.0000000000
     23423       189  DOPC      C29           -31.3434889525      -27.6397040976       -7.4824548850  MEMB      189             0.0000000000
     23424       189  DOPC      H9R           -30.7458282238      -26.9951774965       -6.8211028335  MEMB      189             0.0000000000
     23425       189  DOPC      C210          -32.5348476894      -28.0411632183       -7.0762655786  MEMB      189             0.0000000000
     23426       189  DOPC      H10R          -32.9923705514      -27.6318967200       -6.1634821675  MEMB      189             0.0000000000
     23427       189  DOPC      C211          -33.2280028186      -29.2376638498       -7.6874258312  MEMB      189             0.0000000000
     23428       189  DOPC      H11R          -32.9996150281      -29.3008696893       -8.7728589182  MEMB      189             0.0000000000
     23429       189  DOPC      H11S          -34.3316595050      -29.1231764157       -7.6312515873  MEMB      189             0.0000000000
     23430       189  DOPC      C212          -32.8049790326      -30.6021505455       -7.0509048129  MEMB      189             0.0000000000
     23431       189  DOPC      H12R          -31.7177133459      -30.7919679585       -7.1779619443  MEMB      189             0.0000000000
     23432       189  DOPC      H12S          -33.3409786147      -31.2852284142       -7.7440355878  MEMB      189             0.0000000000
     23433       189  DOPC      C213          -33.0833019250      -30.7346603505       -5.5037057321  MEMB      189             0.0000000000
     23434       189  DOPC      H13R          -34.0702379596      -30.3807735908       -5.1362250682  MEMB      189             0.0000000000
     23435       189  DOPC      H13S          -32.3663610734      -30.0928126192       -4.9484149414  MEMB      189             0.0000000000
     23436       189  DOPC      C214          -32.7632411006      -32.1934873703       -4.9938276107  MEMB      189             0.0000000000
     23437       189  DOPC      H14R          -31.6946606707      -32.3845391770       -5.2303775690  MEMB      189             0.0000000000
     23438       189  DOPC      H14S          -33.3215335115      -32.9804142277       -5.5446240962  MEMB      189             0.0000000000
     23439       189  DOPC      C215          -33.0900492527      -32.3582504109       -3.5044712560  MEMB      189             0.0000000000
     23440       189  DOPC      H15R          -33.2162433191      -33.3943590203       -3.1238473687  MEMB      189             0.0000000000
     23441       189  DOPC      H15S          -34.1153447138      -31.9598610573       -3.3483420894  MEMB      189             0.0000000000
     23442       189  DOPC      C216          -32.2018125213      -31.5532462097       -2.5029451012  MEMB      189             0.0000000000
     23443       189  DOPC      H16R          -31.9572505624      -30.4906266842       -2.7158985389  MEMB      189             0.0000000000
     23444       189  DOPC      H16S          -31.2423430484      -32.0992511435       -2.3779721141  MEMB      189             0.0000000000
     23445       189  DOPC      C217          -32.9255478197      -31.5292683236       -1.1175384219  MEMB      189             0.0000000000
     23446       189  DOPC      H17R          -32.2444189977      -31.5136456488       -0.2399623750  MEMB      189             0.0000000000
     23447       189  DOPC      H17S          -33.4569355634      -32.4851266441       -0.9218790044  MEMB      189             0.0000000000
     23448       189  DOPC      C218          -34.0580193800      -30.5366653834       -1.0802053972  MEMB      189             0.0000000000
     23449       189  DOPC      H18R          -34.4741365871      -30.4249911540       -0.0561471230  MEMB      189             0.0000000000
     23450       189  DOPC      H18S          -34.9511573275      -30.9112906354       -1.6245236586  MEMB      189             0.0000000000
     23451       189  DOPC      H18T          -33.8655609007      -29.5127519190       -1.4660595099  MEMB      189             0.0000000000
     23452       189  DOPC      C33           -31.0368396443      -33.3344633343      -14.0529563578  MEMB      189             0.0000000000
     23453       189  DOPC      H3X           -31.3471114325      -32.2694744809      -13.9909017198  MEMB      189             0.0000000000
     23454       189  DOPC      H3Y           -30.5039956010      -33.5619940248      -15.0009159341  MEMB      189             0.0000000000
     23455       189  DOPC      C34           -29.8947318728      -33.4685769914      -13.0042485279  MEMB      189             0.0000000000
     23456       189  DOPC      H4X           -29.0410428530      -32.8441038606      -13.3442040213  MEMB      189             0.0000000000
     23457       189  DOPC      H4Y           -29.4361232067      -34.4793185556      -12.9552543732  MEMB      189             0.0000000000
     23458       189  DOPC      C35           -30.4011143663      -32.8966478073      -11.6529785172  MEMB      189             0.0000000000
     23459       189  DOPC      H5X           -31.2683096073      -33.3969572179      -11.1713309246  MEMB      189             0.0000000000
     23460       189  DOPC      H5Y           -30.6275048159      -31.8308203523      -11.8699574697  MEMB      189             0.0000000000
     23461       189  DOPC      C36           -29.3700837346      -33.0407441419      -10.6351095450  MEMB      189             0.0000000000
     23462       189  DOPC      H6X           -29.7280387074      -33.5880910635       -9.7369999074  MEMB      189             0.0000000000
     23463       189  DOPC      H6Y           -28.6027816750      -33.7213363644      -11.0621497172  MEMB      189             0.0000000000
     23464       189  DOPC      C37           -28.7225915274      -31.7314291444      -10.2672697314  MEMB      189             0.0000000000
     23465       189  DOPC      H7X           -28.3118109454      -31.3125767472      -11.2107439837  MEMB      189             0.0000000000
     23466       189  DOPC      H7Y           -29.4841668855      -30.9724383887       -9.9875246508  MEMB      189             0.0000000000
     23467       189  DOPC      C38           -27.6931704550      -31.9567069823       -9.1236829667  MEMB      189             0.0000000000
     23468       189  DOPC      H8X           -26.9117139063      -32.6632614516       -9.4764254526  MEMB      189             0.0000000000
     23469       189  DOPC      H8Y           -28.3701587600      -32.4426834395       -8.3889476887  MEMB      189             0.0000000000
     23470       189  DOPC      C39           -27.0464076523      -30.6349433648       -8.6683915891  MEMB      189             0.0000000000
     23471       189  DOPC      H9X           -26.5550414694      -30.0830707439       -9.4832512863  MEMB      189             0.0000000000
     23472       189  DOPC      C310          -27.2436204400      -29.9734639129       -7.4956948149  MEMB      189             0.0000000000
     23473       189  DOPC      H10X          -26.6006520559      -29.1054445596       -7.2880072107  MEMB      189             0.0000000000
     23474       189  DOPC      C311          -28.1662014003      -30.3102833980       -6.3621390686  MEMB      189             0.0000000000
     23475       189  DOPC      H11X          -28.7660921552      -31.2435310311       -6.4213074039  MEMB      189             0.0000000000
     23476       189  DOPC      H11Y          -28.9244865757      -29.4988187076       -6.3329908058  MEMB      189             0.0000000000
     23477       189  DOPC      C312          -27.3125746131      -30.5521707081       -5.1067526582  MEMB      189             0.0000000000
     23478       189  DOPC      H12X          -26.8744680019      -29.5922171217       -4.7590847369  MEMB      189             0.0000000000
     23479       189  DOPC      H12Y          -26.4586004985      -31.2463241127       -5.2590689377  MEMB      189             0.0000000000
     23480       189  DOPC      C313          -28.0750464546      -31.0431048349       -3.8525358115  MEMB      189             0.0000000000
     23481       189  DOPC      H13X          -29.1580608979      -30.8020482977       -3.9099149258  MEMB      189             0.0000000000
     23482       189  DOPC      H13Y          -28.0844111935      -32.1491431342       -3.9569985878  MEMB      189             0.0000000000
     23483       189  DOPC      C314          -27.3948054724      -30.7522111639       -2.5045010607  MEMB      189             0.0000000000
     23484       189  DOPC      H14X          -26.5012965430      -31.4124487652       -2.5114432669  MEMB      189             0.0000000000
     23485       189  DOPC      H14Y          -26.9978279318      -29.7168169615       -2.5729764915  MEMB      189             0.0000000000
     23486       189  DOPC      C315          -28.1561525236      -31.1608990634       -1.1971847346  MEMB      189             0.0000000000
     23487       189  DOPC      H15X          -29.0965683314      -30.5696960151       -1.1767340649  MEMB      189             0.0000000000
     23488       189  DOPC      H15Y          -27.5761412842      -30.9279878023       -0.2786743867  MEMB      189             0.0000000000
     23489       189  DOPC      C316          -28.4868085770      -32.5980380410       -1.0040075959  MEMB      189             0.0000000000
     23490       189  DOPC      H16X          -29.3291961978      -32.9161184278       -1.6547981658  MEMB      189             0.0000000000
     23491       189  DOPC      H16Y          -27.6167456371      -33.2459429513       -1.2438622135  MEMB      189             0.0000000000
     23492       189  DOPC      C317          -29.1474066609      -33.0007083852        0.3765931755  MEMB      189             0.0000000000
     23493       189  DOPC      H17X          -28.4496907652      -32.7392493722        1.2007004120  MEMB      189             0.0000000000
     23494       189  DOPC      H17Y          -30.0665453609      -32.4114952364        0.5823417645  MEMB      189             0.0000000000
     23495       189  DOPC      C318          -29.4455228151      -34.4883490227        0.5237949100  MEMB      189             0.0000000000
     23496       189  DOPC      H18X          -30.3697562234      -34.7159042454       -0.0492073087  MEMB      189             0.0000000000
     23497       189  DOPC      H18Y          -28.6528038864      -35.1261025313        0.0774910400  MEMB      189             0.0000000000
     23498       189  DOPC      H18Z          -29.5313319197      -34.8319369809        1.5768413709  MEMB      189             0.0000000000
     23499       190  DOPC      N             -25.3553446576       35.4892887812      -20.3546346352  MEMB      190             0.0000000000
     23500       190  DOPC      C12           -24.9161144103       36.0650303714      -18.9919254153  MEMB      190             0.0000000000
     23501       190  DOPC      H12A          -25.8026961320       36.3975799849      -18.4725182426  MEMB      190             0.0000000000
     23502       190  DOPC      H12B          -24.2854283047       36.8873748668      -19.2958740222  MEMB      190             0.0000000000
     23503       190  DOPC      C13           -26.4354078558       34.4123667817      -20.2156399148  MEMB      190             0.0000000000
     23504       190  DOPC      H13A          -26.5873016540       34.1880150427      -21.2611037527  MEMB      190             0.0000000000
     23505       190  DOPC      H13B          -25.9283730150       33.5580569971      -19.7920004674  MEMB      190             0.0000000000
     23506       190  DOPC      H13C          -27.2695418854       34.7891383446      -19.6423481693  MEMB      190             0.0000000000
     23507       190  DOPC      C14           -24.2710255124       34.8200167554      -21.1282732773  MEMB      190             0.0000000000
     23508       190  DOPC      H14A          -23.8120049858       34.0484021186      -20.5280141333  MEMB      190             0.0000000000
     23509       190  DOPC      H14B          -24.6448556723       34.3312278722      -22.0158185200  MEMB      190             0.0000000000
     23510       190  DOPC      H14C          -23.5430930527       35.5783701196      -21.3760927263  MEMB      190             0.0000000000
     23511       190  DOPC      C15           -25.9593304255       36.6356466714      -21.1688608300  MEMB      190             0.0000000000
     23512       190  DOPC      H15A          -26.8856751063       37.0669614099      -20.8192141620  MEMB      190             0.0000000000
     23513       190  DOPC      H15B          -26.1931748466       36.3316790418      -22.1784750181  MEMB      190             0.0000000000
     23514       190  DOPC      H15C          -25.1839073518       37.3862457576      -21.1273864255  MEMB      190             0.0000000000
     23515       190  DOPC      C11           -24.2470025984       35.1365832392      -17.9251284334  MEMB      190             0.0000000000
     23516       190  DOPC      H11A          -23.8645920360       35.6533431300      -17.0190145557  MEMB      190             0.0000000000
     23517       190  DOPC      H11B          -25.0184740401       34.4020513193      -17.6095090082  MEMB      190             0.0000000000
     23518       190  DOPC      P             -22.4448649486       33.2393746563      -17.7887347269  MEMB      190             0.0000000000
     23519       190  DOPC      O13           -22.5453826081       33.3609770164      -16.3061238622  MEMB      190             0.0000000000
     23520       190  DOPC      O14           -21.0882970907       32.9565340785      -18.3166889043  MEMB      190             0.0000000000
     23521       190  DOPC      O12           -23.0454049695       34.5167279177      -18.4996374628  MEMB      190             0.0000000000
     23522       190  DOPC      O11           -23.4698141221       32.1055189331      -18.3043525432  MEMB      190             0.0000000000
     23523       190  DOPC      C1            -23.6347224597       30.9053018813      -17.5216008497  MEMB      190             0.0000000000
     23524       190  DOPC      HA            -23.3051811043       30.9769917582      -16.4630244466  MEMB      190             0.0000000000
     23525       190  DOPC      HB            -23.0913792533       30.0508104774      -17.9787045494  MEMB      190             0.0000000000
     23526       190  DOPC      C2            -25.0804805271       30.4958571772      -17.3925240315  MEMB      190             0.0000000000
     23527       190  DOPC      HS            -25.4904129738       30.2660225000      -18.3992278617  MEMB      190             0.0000000000
     23528       190  DOPC      O21           -25.7165235811       31.7239036317      -16.9466518220  MEMB      190             0.0000000000
     23529       190  DOPC      C21           -27.0321464409       31.8171961914      -16.8912399437  MEMB      190             0.0000000000
     23530       190  DOPC      O22           -27.8382961511       30.9872993315      -17.2173619304  MEMB      190             0.0000000000
     23531       190  DOPC      C22           -27.3753093255       33.1768326256      -16.2764385411  MEMB      190             0.0000000000
     23532       190  DOPC      H2R           -28.4795833546       33.2988618454      -16.2792920030  MEMB      190             0.0000000000
     23533       190  DOPC      H2S           -27.0398019171       33.9605688376      -16.9888384345  MEMB      190             0.0000000000
     23534       190  DOPC      C3            -25.1946744145       29.2663849623      -16.3939660723  MEMB      190             0.0000000000
     23535       190  DOPC      HX            -24.6442764301       28.5098990834      -16.9932262147  MEMB      190             0.0000000000
     23536       190  DOPC      HY            -26.1909279821       28.8357721398      -16.1565373123  MEMB      190             0.0000000000
     23537       190  DOPC      O31           -24.4223185217       29.5152005868      -15.2520308712  MEMB      190             0.0000000000
     23538       190  DOPC      C31           -24.9741427571       29.9773021936      -14.1283549571  MEMB      190             0.0000000000
     23539       190  DOPC      O32           -26.1216131360       30.3139088370      -14.0060167228  MEMB      190             0.0000000000
     23540       190  DOPC      C32           -23.8261354871       30.2151464730      -13.1378852842  MEMB      190             0.0000000000
     23541       190  DOPC      H2X           -24.3295975367       30.1519356086      -12.1495269980  MEMB      190             0.0000000000
     23542       190  DOPC      H2Y           -23.0586521423       29.4121000524      -13.1580499370  MEMB      190             0.0000000000
     23543       190  DOPC      C23           -26.8625002037       33.3696826790      -14.8612482462  MEMB      190             0.0000000000
     23544       190  DOPC      H3R           -25.7524684215       33.4001747983      -14.8263085120  MEMB      190             0.0000000000
     23545       190  DOPC      H3S           -27.1662748184       32.4993483055      -14.2411192985  MEMB      190             0.0000000000
     23546       190  DOPC      C24           -27.5257798365       34.5677237402      -14.1518243088  MEMB      190             0.0000000000
     23547       190  DOPC      H4R           -28.6364458790       34.5458032645      -14.1679952917  MEMB      190             0.0000000000
     23548       190  DOPC      H4S           -27.2081840842       35.5165429738      -14.6347280581  MEMB      190             0.0000000000
     23549       190  DOPC      C25           -27.1933534454       34.6798844648      -12.6668895539  MEMB      190             0.0000000000
     23550       190  DOPC      H5R           -27.8736387574       35.4898197611      -12.3269810726  MEMB      190             0.0000000000
     23551       190  DOPC      H5S           -26.1242255394       34.6956117951      -12.3651624337  MEMB      190             0.0000000000
     23552       190  DOPC      C26           -27.6730673413       33.4594562471      -11.9350601803  MEMB      190             0.0000000000
     23553       190  DOPC      H6R           -27.1035270861       32.5540101561      -12.2352473850  MEMB      190             0.0000000000
     23554       190  DOPC      H6S           -28.7433551017       33.3977342999      -12.2266000627  MEMB      190             0.0000000000
     23555       190  DOPC      C27           -27.7200661659       33.6677387229      -10.4313376860  MEMB      190             0.0000000000
     23556       190  DOPC      H7R           -28.2097298748       34.6408000407      -10.2129296084  MEMB      190             0.0000000000
     23557       190  DOPC      H7S           -26.6801052556       33.6939635282      -10.0413180969  MEMB      190             0.0000000000
     23558       190  DOPC      C28           -28.4799120170       32.5152000947       -9.7094028953  MEMB      190             0.0000000000
     23559       190  DOPC      H8R           -29.2432866384       32.2451014985      -10.4700782411  MEMB      190             0.0000000000
     23560       190  DOPC      H8S           -29.0763749676       32.8690453999       -8.8414477207  MEMB      190             0.0000000000
     23561       190  DOPC      C29           -27.6894402655       31.2927981557       -9.2755007969  MEMB      190             0.0000000000
     23562       190  DOPC      H9R           -27.3966000055       30.7307153579      -10.1745597361  MEMB      190             0.0000000000
     23563       190  DOPC      C210          -27.1410921880       30.9514043036       -8.1387422015  MEMB      190             0.0000000000
     23564       190  DOPC      H10R          -26.5529223299       30.0221970519       -8.1638395359  MEMB      190             0.0000000000
     23565       190  DOPC      C211          -27.1040670126       31.6548455673       -6.7850774491  MEMB      190             0.0000000000
     23566       190  DOPC      H11R          -27.4358082170       30.9492162869       -5.9936509519  MEMB      190             0.0000000000
     23567       190  DOPC      H11S          -27.8492989599       32.4781716796       -6.7521477951  MEMB      190             0.0000000000
     23568       190  DOPC      C212          -25.7983762626       32.2438316689       -6.2164785541  MEMB      190             0.0000000000
     23569       190  DOPC      H12R          -26.0534139800       32.7158354526       -5.2436024152  MEMB      190             0.0000000000
     23570       190  DOPC      H12S          -25.5471059517       33.1713191997       -6.7741088897  MEMB      190             0.0000000000
     23571       190  DOPC      C213          -24.6789000097       31.2466119361       -6.1874635807  MEMB      190             0.0000000000
     23572       190  DOPC      H13R          -23.7537783338       31.7993971841       -5.9174643390  MEMB      190             0.0000000000
     23573       190  DOPC      H13S          -24.5493825497       30.8740870730       -7.2261029800  MEMB      190             0.0000000000
     23574       190  DOPC      C214          -24.7552965873       30.1353414673       -5.1707863056  MEMB      190             0.0000000000
     23575       190  DOPC      H14R          -23.9342121848       29.4041538949       -5.3304929665  MEMB      190             0.0000000000
     23576       190  DOPC      H14S          -25.7697248645       29.7636203115       -5.4297834664  MEMB      190             0.0000000000
     23577       190  DOPC      C215          -24.5092422803       30.5718256706       -3.7380127351  MEMB      190             0.0000000000
     23578       190  DOPC      H15R          -25.4726664998       31.0544592958       -3.4674587741  MEMB      190             0.0000000000
     23579       190  DOPC      H15S          -23.6306517755       31.2232293084       -3.5428894096  MEMB      190             0.0000000000
     23580       190  DOPC      C216          -24.5887595494       29.4271030081       -2.7829555430  MEMB      190             0.0000000000
     23581       190  DOPC      H16R          -23.6989125270       28.8111488293       -3.0341405482  MEMB      190             0.0000000000
     23582       190  DOPC      H16S          -25.5289149155       28.9000011439       -3.0523856592  MEMB      190             0.0000000000
     23583       190  DOPC      C217          -24.5630267796       29.8386126008       -1.3517700255  MEMB      190             0.0000000000
     23584       190  DOPC      H17R          -25.2317049109       30.6819277377       -1.0760705147  MEMB      190             0.0000000000
     23585       190  DOPC      H17S          -23.5367156261       30.2444340657       -1.2240371666  MEMB      190             0.0000000000
     23586       190  DOPC      C218          -24.9318608168       28.7142019292       -0.3969821789  MEMB      190             0.0000000000
     23587       190  DOPC      H18R          -24.1673321586       27.9086481240       -0.3669864644  MEMB      190             0.0000000000
     23588       190  DOPC      H18S          -25.9070039623       28.4092683402       -0.8333676045  MEMB      190             0.0000000000
     23589       190  DOPC      H18T          -24.9866194366       29.1911188673        0.6049535389  MEMB      190             0.0000000000
     23590       190  DOPC      C33           -23.3527989034       31.6947142218      -13.2717461779  MEMB      190             0.0000000000
     23591       190  DOPC      H3X           -24.2812361221       32.2770857661      -13.4538684270  MEMB      190             0.0000000000
     23592       190  DOPC      H3Y           -22.5767721311       31.9296690855      -14.0312851164  MEMB      190             0.0000000000
     23593       190  DOPC      C34           -22.7886722252       32.1651230754      -11.9283539508  MEMB      190             0.0000000000
     23594       190  DOPC      H4X           -23.5963394033       31.9884619389      -11.1862048829  MEMB      190             0.0000000000
     23595       190  DOPC      H4Y           -22.6258808561       33.2617781361      -12.0002405326  MEMB      190             0.0000000000
     23596       190  DOPC      C35           -21.5635048983       31.5126272719      -11.4330010640  MEMB      190             0.0000000000
     23597       190  DOPC      H5X           -20.8061135051       31.3649764616      -12.2322996948  MEMB      190             0.0000000000
     23598       190  DOPC      H5Y           -21.6979158241       30.4546960911      -11.1214942618  MEMB      190             0.0000000000
     23599       190  DOPC      C36           -21.0919840827       32.1804987181      -10.1842464561  MEMB      190             0.0000000000
     23600       190  DOPC      H6X           -20.6524050285       33.1428813949      -10.5232313788  MEMB      190             0.0000000000
     23601       190  DOPC      H6Y           -21.9895734681       32.3378624353       -9.5487217740  MEMB      190             0.0000000000
     23602       190  DOPC      C37           -20.0382033262       31.4249864264       -9.4143592152  MEMB      190             0.0000000000
     23603       190  DOPC      H7X           -20.5148085731       30.4469394855       -9.1894324268  MEMB      190             0.0000000000
     23604       190  DOPC      H7Y           -19.1473906243       31.2447371076      -10.0533306830  MEMB      190             0.0000000000
     23605       190  DOPC      C38           -19.6704750267       32.1198778293       -8.1072346152  MEMB      190             0.0000000000
     23606       190  DOPC      H8X           -18.9162573960       31.4643501796       -7.6216836135  MEMB      190             0.0000000000
     23607       190  DOPC      H8Y           -20.5100227184       32.0576690961       -7.3822446558  MEMB      190             0.0000000000
     23608       190  DOPC      C39           -19.0339280372       33.4247921818       -8.1408004503  MEMB      190             0.0000000000
     23609       190  DOPC      H9X           -17.9593925619       33.5491780094       -8.3405533734  MEMB      190             0.0000000000
     23610       190  DOPC      C310          -19.5357035125       34.5847561026       -7.7094089332  MEMB      190             0.0000000000
     23611       190  DOPC      H10X          -18.9467774726       35.5099423878       -7.7942409061  MEMB      190             0.0000000000
     23612       190  DOPC      C311          -20.9114853780       34.7412388198       -7.0856482289  MEMB      190             0.0000000000
     23613       190  DOPC      H11X          -21.5500602842       33.8371860906       -7.1817299579  MEMB      190             0.0000000000
     23614       190  DOPC      H11Y          -21.3834943909       35.4615107245       -7.7875998002  MEMB      190             0.0000000000
     23615       190  DOPC      C312          -20.8973067450       35.3807622271       -5.6754218436  MEMB      190             0.0000000000
     23616       190  DOPC      H12X          -21.9303229043       35.5655373644       -5.3106526276  MEMB      190             0.0000000000
     23617       190  DOPC      H12Y          -20.4132931900       36.3724557421       -5.8042470494  MEMB      190             0.0000000000
     23618       190  DOPC      C313          -20.1057391708       34.6813814217       -4.6042173349  MEMB      190             0.0000000000
     23619       190  DOPC      H13X          -20.7676547868       33.9260917425       -4.1291101312  MEMB      190             0.0000000000
     23620       190  DOPC      H13Y          -19.2821390243       34.0761000180       -5.0396921877  MEMB      190             0.0000000000
     23621       190  DOPC      C314          -19.2732030361       35.4940374836       -3.5220162213  MEMB      190             0.0000000000
     23622       190  DOPC      H14X          -18.2221502522       35.1379443754       -3.4690333387  MEMB      190             0.0000000000
     23623       190  DOPC      H14Y          -19.1282902454       36.5711495872       -3.7525603116  MEMB      190             0.0000000000
     23624       190  DOPC      C315          -20.0351595724       35.2974013257       -2.1952049368  MEMB      190             0.0000000000
     23625       190  DOPC      H15X          -21.1446196500       35.2595516710       -2.1506309789  MEMB      190             0.0000000000
     23626       190  DOPC      H15Y          -19.8479157125       36.1098176213       -1.4608747788  MEMB      190             0.0000000000
     23627       190  DOPC      C316          -19.6857197359       33.9482313130       -1.6030785892  MEMB      190             0.0000000000
     23628       190  DOPC      H16X          -19.9725229844       33.1518538093       -2.3226951975  MEMB      190             0.0000000000
     23629       190  DOPC      H16Y          -18.5862156221       34.0383726988       -1.4715997580  MEMB      190             0.0000000000
     23630       190  DOPC      C317          -20.3095993838       33.7510533759       -0.2555484693  MEMB      190             0.0000000000
     23631       190  DOPC      H17X          -19.8960531259       34.5009305027        0.4522552635  MEMB      190             0.0000000000
     23632       190  DOPC      H17Y          -21.3975964147       33.9620883128       -0.3333125952  MEMB      190             0.0000000000
     23633       190  DOPC      C318          -20.1465542018       32.3799651898        0.4021170161  MEMB      190             0.0000000000
     23634       190  DOPC      H18X          -19.1149141678       31.9813730979        0.2964559608  MEMB      190             0.0000000000
     23635       190  DOPC      H18Y          -20.3759469203       32.4449837350        1.4872310675  MEMB      190             0.0000000000
     23636       190  DOPC      H18Z          -20.8271937465       31.6052067598       -0.0111627284  MEMB      190             0.0000000000
     23637       191  DOPC      N              32.8281787628       29.8094222217      -19.5246490956  MEMB      191             0.0000000000
     23638       191  DOPC      C12            32.1517415659       28.8524681108      -20.4714209393  MEMB      191             0.0000000000
     23639       191  DOPC      H12A           32.8074986357       28.6683484987      -21.3095633522  MEMB      191             0.0000000000
     23640       191  DOPC      H12B           31.2438904686       29.1942028324      -20.9462091382  MEMB      191             0.0000000000
     23641       191  DOPC      C13            32.0300752598       30.0217521247      -18.2523925247  MEMB      191             0.0000000000
     23642       191  DOPC      H13A           31.0240322787       30.3617467334      -18.4490684727  MEMB      191             0.0000000000
     23643       191  DOPC      H13B           32.0571528264       29.1192583461      -17.6597951268  MEMB      191             0.0000000000
     23644       191  DOPC      H13C           32.5291964021       30.8593337782      -17.7879195932  MEMB      191             0.0000000000
     23645       191  DOPC      C14            33.1492397869       31.1165500903      -20.2323556848  MEMB      191             0.0000000000
     23646       191  DOPC      H14A           32.2148181225       31.4741514087      -20.6390219590  MEMB      191             0.0000000000
     23647       191  DOPC      H14B           33.4997475374       31.8794676981      -19.5530169863  MEMB      191             0.0000000000
     23648       191  DOPC      H14C           33.8995522102       31.0919003889      -21.0087728060  MEMB      191             0.0000000000
     23649       191  DOPC      C15            34.2179248574       29.3599302974      -19.1708070931  MEMB      191             0.0000000000
     23650       191  DOPC      H15A           34.6650782659       29.2719286408      -20.1499441314  MEMB      191             0.0000000000
     23651       191  DOPC      H15B           34.1603218407       28.4550923151      -18.5839935628  MEMB      191             0.0000000000
     23652       191  DOPC      H15C           34.6593448978       30.1667713228      -18.6046305903  MEMB      191             0.0000000000
     23653       191  DOPC      C11            31.8423747159       27.3551248219      -19.9577370099  MEMB      191             0.0000000000
     23654       191  DOPC      H11A           31.3533945608       26.7948863778      -20.7831776950  MEMB      191             0.0000000000
     23655       191  DOPC      H11B           32.8883922806       26.9984288580      -19.8439996691  MEMB      191             0.0000000000
     23656       191  DOPC      P              30.5770083125       25.8615337609      -18.2985698699  MEMB      191             0.0000000000
     23657       191  DOPC      O13            31.6313657335       25.0718678027      -17.5806076111  MEMB      191             0.0000000000
     23658       191  DOPC      O14            29.9023949292       25.1631029437      -19.4196502670  MEMB      191             0.0000000000
     23659       191  DOPC      O12            31.1300265836       27.2946286378      -18.7634831292  MEMB      191             0.0000000000
     23660       191  DOPC      O11            29.5363703415       26.4110778863      -17.3283267762  MEMB      191             0.0000000000
     23661       191  DOPC      C1             28.5923008980       27.4172122277      -17.5416533474  MEMB      191             0.0000000000
     23662       191  DOPC      HA             27.7739151502       27.0397482228      -18.1913355732  MEMB      191             0.0000000000
     23663       191  DOPC      HB             29.0641570718       28.2373979864      -18.1238631235  MEMB      191             0.0000000000
     23664       191  DOPC      C2             28.0287041945       27.8463600833      -16.1915883839  MEMB      191             0.0000000000
     23665       191  DOPC      HS             28.8371148305       27.9600332210      -15.4380158416  MEMB      191             0.0000000000
     23666       191  DOPC      O21            27.0079164287       27.0491079989      -15.6505033317  MEMB      191             0.0000000000
     23667       191  DOPC      C21            27.3423435562       26.1197019122      -14.7676207966  MEMB      191             0.0000000000
     23668       191  DOPC      O22            28.4049460189       25.5052527522      -14.7251781619  MEMB      191             0.0000000000
     23669       191  DOPC      C22            26.1853504124       25.9694881576      -13.7251506987  MEMB      191             0.0000000000
     23670       191  DOPC      H2R            26.2262864753       25.0178452431      -13.1532927833  MEMB      191             0.0000000000
     23671       191  DOPC      H2S            25.2082049091       25.8794449647      -14.2461114213  MEMB      191             0.0000000000
     23672       191  DOPC      C3             27.3932315678       29.3320841213      -16.2934751366  MEMB      191             0.0000000000
     23673       191  DOPC      HX             26.3847830381       29.1079534506      -16.7022755676  MEMB      191             0.0000000000
     23674       191  DOPC      HY             28.0175624159       29.9735431899      -16.9515497082  MEMB      191             0.0000000000
     23675       191  DOPC      O31            27.3421363898       29.9057775313      -14.9782526265  MEMB      191             0.0000000000
     23676       191  DOPC      C31            28.1480262695       30.9227313392      -14.7630603656  MEMB      191             0.0000000000
     23677       191  DOPC      O32            29.0141175180       31.3376220925      -15.5359164982  MEMB      191             0.0000000000
     23678       191  DOPC      C32            28.0221915678       31.2597279447      -13.2976801729  MEMB      191             0.0000000000
     23679       191  DOPC      H2X            27.3315520168       32.1165272286      -13.1452563194  MEMB      191             0.0000000000
     23680       191  DOPC      H2Y            27.5935313352       30.4683145148      -12.6463459693  MEMB      191             0.0000000000
     23681       191  DOPC      C23            26.1656177070       27.2071001358      -12.7727375715  MEMB      191             0.0000000000
     23682       191  DOPC      H3R            25.3305638602       27.0516888518      -12.0565999733  MEMB      191             0.0000000000
     23683       191  DOPC      H3S            25.9499967154       28.0505298720      -13.4629947085  MEMB      191             0.0000000000
     23684       191  DOPC      C24            27.5288810072       27.4554326076      -12.1419555278  MEMB      191             0.0000000000
     23685       191  DOPC      H4R            27.4202832351       28.3974432680      -11.5630397568  MEMB      191             0.0000000000
     23686       191  DOPC      H4S            28.2260370522       27.7135598399      -12.9675853346  MEMB      191             0.0000000000
     23687       191  DOPC      C25            27.9379997981       26.2846129512      -11.2204821284  MEMB      191             0.0000000000
     23688       191  DOPC      H5R            27.7908429102       25.2989826858      -11.7116017486  MEMB      191             0.0000000000
     23689       191  DOPC      H5S            27.2660862832       26.2837154081      -10.3356923941  MEMB      191             0.0000000000
     23690       191  DOPC      C26            29.4008397946       26.2100410185      -10.7628483005  MEMB      191             0.0000000000
     23691       191  DOPC      H6R            30.1105877061       25.9664594406      -11.5821451169  MEMB      191             0.0000000000
     23692       191  DOPC      H6S            29.5513048800       25.3723873090      -10.0486939213  MEMB      191             0.0000000000
     23693       191  DOPC      C27            29.8235334665       27.5436008081       -9.9549551531  MEMB      191             0.0000000000
     23694       191  DOPC      H7R            29.1136594073       27.6017996799       -9.1023053840  MEMB      191             0.0000000000
     23695       191  DOPC      H7S            29.6714236591       28.3987742810      -10.6476760504  MEMB      191             0.0000000000
     23696       191  DOPC      C28            31.3343595495       27.5505080762       -9.4969972053  MEMB      191             0.0000000000
     23697       191  DOPC      H8R            31.9659118518       27.0945878159      -10.2892085994  MEMB      191             0.0000000000
     23698       191  DOPC      H8S            31.4806968069       26.9043424596       -8.6051583689  MEMB      191             0.0000000000
     23699       191  DOPC      C29            31.8943330941       28.9313143363       -9.3429968675  MEMB      191             0.0000000000
     23700       191  DOPC      H9R            31.8552951233       29.6784091473      -10.1494241277  MEMB      191             0.0000000000
     23701       191  DOPC      C210           32.5665284449       29.3938379132       -8.2789529978  MEMB      191             0.0000000000
     23702       191  DOPC      H10R           32.8508777283       30.4537039132       -8.3553037722  MEMB      191             0.0000000000
     23703       191  DOPC      C211           32.8769768947       28.7166894168       -6.9854679572  MEMB      191             0.0000000000
     23704       191  DOPC      H11R           33.9801700801       28.5855352919       -6.9946525524  MEMB      191             0.0000000000
     23705       191  DOPC      H11S           32.4632819649       27.6866883680       -6.9377676101  MEMB      191             0.0000000000
     23706       191  DOPC      C212           32.4809654531       29.3943317534       -5.6224130850  MEMB      191             0.0000000000
     23707       191  DOPC      H12R           33.0916212196       30.3136377650       -5.4947538520  MEMB      191             0.0000000000
     23708       191  DOPC      H12S           32.6930860486       28.7493523728       -4.7430233259  MEMB      191             0.0000000000
     23709       191  DOPC      C213           30.9620793376       29.8432691636       -5.4610692942  MEMB      191             0.0000000000
     23710       191  DOPC      H13R           30.3484355199       29.0052891653       -5.8554698105  MEMB      191             0.0000000000
     23711       191  DOPC      H13S           30.8093916582       30.6922423185       -6.1612495655  MEMB      191             0.0000000000
     23712       191  DOPC      C214           30.5469541138       30.1518583635       -4.0108066032  MEMB      191             0.0000000000
     23713       191  DOPC      H14R           30.7142605758       29.2054355064       -3.4534796908  MEMB      191             0.0000000000
     23714       191  DOPC      H14S           29.4614496928       30.3829835685       -4.0616241634  MEMB      191             0.0000000000
     23715       191  DOPC      C215           31.2670889344       31.3101501589       -3.3582333798  MEMB      191             0.0000000000
     23716       191  DOPC      H15R           31.1812447313       32.1260926109       -4.1073592952  MEMB      191             0.0000000000
     23717       191  DOPC      H15S           32.3509204022       31.0731674165       -3.2993305672  MEMB      191             0.0000000000
     23718       191  DOPC      C216           30.7928060337       31.8928155661       -2.0457360798  MEMB      191             0.0000000000
     23719       191  DOPC      H16R           31.1819790285       31.2870662697       -1.1996066474  MEMB      191             0.0000000000
     23720       191  DOPC      H16S           29.6900997275       31.7606590007       -2.0158152068  MEMB      191             0.0000000000
     23721       191  DOPC      C217           31.0120620538       33.3622719210       -1.6721242716  MEMB      191             0.0000000000
     23722       191  DOPC      H17R           32.0783084789       33.6629542318       -1.5882802980  MEMB      191             0.0000000000
     23723       191  DOPC      H17S           30.4252883245       33.4292864641       -0.7310990685  MEMB      191             0.0000000000
     23724       191  DOPC      C218           30.3733634349       34.4152869902       -2.6347334829  MEMB      191             0.0000000000
     23725       191  DOPC      H18R           30.5132513545       35.4819654193       -2.3573360681  MEMB      191             0.0000000000
     23726       191  DOPC      H18S           29.3010194219       34.1586252737       -2.7708378341  MEMB      191             0.0000000000
     23727       191  DOPC      H18T           30.9024562067       34.3215735405       -3.6071524305  MEMB      191             0.0000000000
     23728       191  DOPC      C33            29.4681414922       31.5409835429      -12.7030713346  MEMB      191             0.0000000000
     23729       191  DOPC      H3X            29.9445952424       32.4364270022      -13.1563863469  MEMB      191             0.0000000000
     23730       191  DOPC      H3Y            30.0830703218       30.6367181152      -12.8992537982  MEMB      191             0.0000000000
     23731       191  DOPC      C34            29.4530057569       31.7127216094      -11.1655010160  MEMB      191             0.0000000000
     23732       191  DOPC      H4X            30.4499810660       31.5912866473      -10.6905119299  MEMB      191             0.0000000000
     23733       191  DOPC      H4Y            28.8839781376       30.9111898605      -10.6477413581  MEMB      191             0.0000000000
     23734       191  DOPC      C35            28.8408302527       33.0390205196      -10.7954819165  MEMB      191             0.0000000000
     23735       191  DOPC      H5X            27.8215526524       33.2336718519      -11.1923511215  MEMB      191             0.0000000000
     23736       191  DOPC      H5Y            29.4442869915       33.7563139361      -11.3918470360  MEMB      191             0.0000000000
     23737       191  DOPC      C36            28.8940390739       33.3070846884       -9.2984453366  MEMB      191             0.0000000000
     23738       191  DOPC      H6X            29.8649127863       32.9199982155       -8.9217631772  MEMB      191             0.0000000000
     23739       191  DOPC      H6Y            28.8260492983       34.4088399756       -9.1726091499  MEMB      191             0.0000000000
     23740       191  DOPC      C37            27.6491202550       32.7643928793       -8.5993280731  MEMB      191             0.0000000000
     23741       191  DOPC      H7X            27.7357589082       33.0059729740       -7.5183777153  MEMB      191             0.0000000000
     23742       191  DOPC      H7Y            26.8494778659       33.4588146580       -8.9349940059  MEMB      191             0.0000000000
     23743       191  DOPC      C38            27.2800551144       31.2721966119       -8.7919213040  MEMB      191             0.0000000000
     23744       191  DOPC      H8X            28.1638517064       30.6523177228       -8.5292915279  MEMB      191             0.0000000000
     23745       191  DOPC      H8Y            26.9213784576       31.1204790241       -9.8324275248  MEMB      191             0.0000000000
     23746       191  DOPC      C39            26.1377084896       30.8688829684       -7.9365800035  MEMB      191             0.0000000000
     23747       191  DOPC      H9X            25.2093995224       31.3729952195       -8.2433587402  MEMB      191             0.0000000000
     23748       191  DOPC      C310           26.0639638780       29.9386101831       -6.9564273976  MEMB      191             0.0000000000
     23749       191  DOPC      H10X           25.1457811387       29.7973390253       -6.3673742874  MEMB      191             0.0000000000
     23750       191  DOPC      C311           27.1586150800       29.0773757349       -6.4365856899  MEMB      191             0.0000000000
     23751       191  DOPC      H11X           28.0747977413       29.6287705353       -6.1350992730  MEMB      191             0.0000000000
     23752       191  DOPC      H11Y           27.5926290157       28.5251927679       -7.2974258821  MEMB      191             0.0000000000
     23753       191  DOPC      C312           26.6157630717       28.0941533059       -5.3850525120  MEMB      191             0.0000000000
     23754       191  DOPC      H12X           25.7934380623       27.4498283384       -5.7631366920  MEMB      191             0.0000000000
     23755       191  DOPC      H12Y           26.2531118550       28.6491727148       -4.4935600088  MEMB      191             0.0000000000
     23756       191  DOPC      C313           27.8356216248       27.2761081808       -4.8214498094  MEMB      191             0.0000000000
     23757       191  DOPC      H13X           28.3486914687       26.9298273902       -5.7440385662  MEMB      191             0.0000000000
     23758       191  DOPC      H13Y           28.5045159621       27.9740114207       -4.2738801200  MEMB      191             0.0000000000
     23759       191  DOPC      C314           27.4464736823       26.0365684475       -3.9891003394  MEMB      191             0.0000000000
     23760       191  DOPC      H14X           26.9299097832       25.1983423370       -4.5037450551  MEMB      191             0.0000000000
     23761       191  DOPC      H14Y           28.3266615303       25.4946445070       -3.5817810538  MEMB      191             0.0000000000
     23762       191  DOPC      C315           26.6200363552       26.3830400501       -2.7323613291  MEMB      191             0.0000000000
     23763       191  DOPC      H15X           26.2813296914       25.4926711405       -2.1606603246  MEMB      191             0.0000000000
     23764       191  DOPC      H15Y           25.6571028309       26.8458240841       -3.0371746378  MEMB      191             0.0000000000
     23765       191  DOPC      C316           27.3379733351       27.3630159688       -1.7983409691  MEMB      191             0.0000000000
     23766       191  DOPC      H16X           27.6150567652       28.2381201606       -2.4242311023  MEMB      191             0.0000000000
     23767       191  DOPC      H16Y           26.6372825845       27.5965494821       -0.9683916768  MEMB      191             0.0000000000
     23768       191  DOPC      C317           28.7870884390       26.8908015495       -1.2183902134  MEMB      191             0.0000000000
     23769       191  DOPC      H17X           28.6597906036       25.9773385731       -0.5989537446  MEMB      191             0.0000000000
     23770       191  DOPC      H17Y           29.3168640616       26.4676260382       -2.0984924475  MEMB      191             0.0000000000
     23771       191  DOPC      C318           29.6213412473       27.9354391069       -0.4070098661  MEMB      191             0.0000000000
     23772       191  DOPC      H18X           29.1177921725       28.3477953857        0.4933910299  MEMB      191             0.0000000000
     23773       191  DOPC      H18Y           30.5820108225       27.4138839771       -0.2084767411  MEMB      191             0.0000000000
     23774       191  DOPC      H18Z           29.8282814588       28.7840755360       -1.0935320860  MEMB      191             0.0000000000
     23775       192  DOPC      N              25.8350920401      -35.5947804221      -20.3532068972  MEMB      192             0.0000000000
     23776       192  DOPC      C12            25.5252351471      -34.0648245454      -20.4540031277  MEMB      192             0.0000000000
     23777       192  DOPC      H12A           25.6582613848      -33.9864621589      -21.5229106475  MEMB      192             0.0000000000
     23778       192  DOPC      H12B           26.3178970648      -33.5841296301      -19.8999096840  MEMB      192             0.0000000000
     23779       192  DOPC      C13            26.0634384754      -35.8682062951      -18.8854474282  MEMB      192             0.0000000000
     23780       192  DOPC      H13A           26.8384958525      -35.1910269962      -18.5581644946  MEMB      192             0.0000000000
     23781       192  DOPC      H13B           25.1815969593      -35.6630434799      -18.2966657803  MEMB      192             0.0000000000
     23782       192  DOPC      H13C           26.3418173970      -36.9110256044      -18.8475893917  MEMB      192             0.0000000000
     23783       192  DOPC      C14            26.9504766383      -35.9207574323      -21.2457022104  MEMB      192             0.0000000000
     23784       192  DOPC      H14A           27.1158029326      -36.9766727344      -21.4009767364  MEMB      192             0.0000000000
     23785       192  DOPC      H14B           26.7006303469      -35.4963196222      -22.2068625458  MEMB      192             0.0000000000
     23786       192  DOPC      H14C           27.8206916967      -35.4778140338      -20.7842619471  MEMB      192             0.0000000000
     23787       192  DOPC      C15            24.6136486691      -36.3001719533      -20.7606083297  MEMB      192             0.0000000000
     23788       192  DOPC      H15A           24.3075069453      -35.9545199690      -21.7369289597  MEMB      192             0.0000000000
     23789       192  DOPC      H15B           23.8951504420      -35.8879014683      -20.0676483547  MEMB      192             0.0000000000
     23790       192  DOPC      H15C           24.7305317644      -37.3546197687      -20.5584253693  MEMB      192             0.0000000000
     23791       192  DOPC      C11            24.2106087922      -33.4760729725      -19.9508249997  MEMB      192             0.0000000000
     23792       192  DOPC      H11A           24.1112521979      -32.4171402237      -20.2719337458  MEMB      192             0.0000000000
     23793       192  DOPC      H11B           23.4165470033      -34.0523538981      -20.4720612696  MEMB      192             0.0000000000
     23794       192  DOPC      P              24.5194359919      -32.6718614816      -17.4411816028  MEMB      192             0.0000000000
     23795       192  DOPC      O13            23.5265720279      -31.6471496208      -17.3677670935  MEMB      192             0.0000000000
     23796       192  DOPC      O14            25.8622827000      -32.1512133628      -17.7815740137  MEMB      192             0.0000000000
     23797       192  DOPC      O12            24.1504131052      -33.7038617676      -18.5776194391  MEMB      192             0.0000000000
     23798       192  DOPC      O11            24.6399134756      -33.6191875795      -16.1820648600  MEMB      192             0.0000000000
     23799       192  DOPC      C1             25.0947656037      -33.1519898677      -14.9208901319  MEMB      192             0.0000000000
     23800       192  DOPC      HA             24.3722190396      -33.4989563480      -14.1515645249  MEMB      192             0.0000000000
     23801       192  DOPC      HB             24.9955308837      -32.0461756892      -14.8802888171  MEMB      192             0.0000000000
     23802       192  DOPC      C2             26.6442005762      -33.5311959002      -14.6882283414  MEMB      192             0.0000000000
     23803       192  DOPC      HS             27.1288589890      -33.2964280953      -15.6599849831  MEMB      192             0.0000000000
     23804       192  DOPC      O21            26.7009445885      -34.9133243982      -14.3670893758  MEMB      192             0.0000000000
     23805       192  DOPC      C21            27.8228422304      -35.5275742856      -14.4782022725  MEMB      192             0.0000000000
     23806       192  DOPC      O22            28.9068805061      -34.9497688654      -14.7347288712  MEMB      192             0.0000000000
     23807       192  DOPC      C22            27.7541318197      -37.0711660734      -14.3960340914  MEMB      192             0.0000000000
     23808       192  DOPC      H2R            28.0468564123      -37.5404033932      -15.3595954749  MEMB      192             0.0000000000
     23809       192  DOPC      H2S            26.7788668122      -37.4760262767      -14.0506832513  MEMB      192             0.0000000000
     23810       192  DOPC      C3             27.2432790487      -32.8096730590      -13.4442812565  MEMB      192             0.0000000000
     23811       192  DOPC      HX             27.3990100797      -31.7127152638      -13.5264529612  MEMB      192             0.0000000000
     23812       192  DOPC      HY             28.2852389231      -33.1418697545      -13.2486133182  MEMB      192             0.0000000000
     23813       192  DOPC      O31            26.4343109184      -32.9422665652      -12.2989182415  MEMB      192             0.0000000000
     23814       192  DOPC      C31            26.9035737522      -32.7632376572      -11.1137686825  MEMB      192             0.0000000000
     23815       192  DOPC      O32            28.0318281637      -32.5141842547      -10.8558127114  MEMB      192             0.0000000000
     23816       192  DOPC      C32            25.6145143542      -32.8505581605      -10.1880611254  MEMB      192             0.0000000000
     23817       192  DOPC      H2X            24.6442862377      -32.7729659037      -10.7237456476  MEMB      192             0.0000000000
     23818       192  DOPC      H2Y            25.6595265242      -33.7883381089       -9.5940380722  MEMB      192             0.0000000000
     23819       192  DOPC      C23            28.7523813344      -37.5715432628      -13.3577375762  MEMB      192             0.0000000000
     23820       192  DOPC      H3R            29.7432235000      -37.1300866633      -13.5978809713  MEMB      192             0.0000000000
     23821       192  DOPC      H3S            28.8539193495      -38.6651194969      -13.5253737747  MEMB      192             0.0000000000
     23822       192  DOPC      C24            28.4057811438      -37.4626831318      -11.9107748276  MEMB      192             0.0000000000
     23823       192  DOPC      H4R            28.3791957743      -36.4173108237      -11.5355266691  MEMB      192             0.0000000000
     23824       192  DOPC      H4S            29.0921525241      -38.0639157098      -11.2769492963  MEMB      192             0.0000000000
     23825       192  DOPC      C25            27.0395003111      -38.0883255698      -11.5244649709  MEMB      192             0.0000000000
     23826       192  DOPC      H5R            27.2328642339      -39.1767764700      -11.4139843073  MEMB      192             0.0000000000
     23827       192  DOPC      H5S            26.3711452845      -38.0662960776      -12.4116722645  MEMB      192             0.0000000000
     23828       192  DOPC      C26            26.4274089654      -37.4410378065      -10.3377281976  MEMB      192             0.0000000000
     23829       192  DOPC      H6R            26.1535433452      -36.3800164544      -10.5209008172  MEMB      192             0.0000000000
     23830       192  DOPC      H6S            27.2816121564      -37.5140911001       -9.6311012095  MEMB      192             0.0000000000
     23831       192  DOPC      C27            25.1363441331      -38.1043922047       -9.7133429001  MEMB      192             0.0000000000
     23832       192  DOPC      H7R            25.3215573928      -39.1181076241       -9.2981334766  MEMB      192             0.0000000000
     23833       192  DOPC      H7S            24.4487172619      -38.3549508109      -10.5492315364  MEMB      192             0.0000000000
     23834       192  DOPC      C28            24.3785259868      -37.3593243988       -8.6339531882  MEMB      192             0.0000000000
     23835       192  DOPC      H8R            25.0741102173      -37.4359996059       -7.7710484461  MEMB      192             0.0000000000
     23836       192  DOPC      H8S            23.5399657598      -37.9946961801       -8.2769649420  MEMB      192             0.0000000000
     23837       192  DOPC      C29            23.9378741567      -35.9541591781       -8.9454072310  MEMB      192             0.0000000000
     23838       192  DOPC      H9R            24.0176155847      -35.6566346672      -10.0013992324  MEMB      192             0.0000000000
     23839       192  DOPC      C210           23.3224189996      -35.1275563040       -8.1118221149  MEMB      192             0.0000000000
     23840       192  DOPC      H10R           23.0146216439      -34.1074879488       -8.3851746191  MEMB      192             0.0000000000
     23841       192  DOPC      C211           22.9938487077      -35.4479478106       -6.6222939409  MEMB      192             0.0000000000
     23842       192  DOPC      H11R           23.3898658632      -36.3893890369       -6.1850522694  MEMB      192             0.0000000000
     23843       192  DOPC      H11S           21.9015661175      -35.6481362399       -6.5881822941  MEMB      192             0.0000000000
     23844       192  DOPC      C212           23.2464301730      -34.3563546914       -5.5660004171  MEMB      192             0.0000000000
     23845       192  DOPC      H12R           22.6935938537      -34.7182741412       -4.6728562113  MEMB      192             0.0000000000
     23846       192  DOPC      H12S           22.7775409919      -33.4482483276       -6.0016697963  MEMB      192             0.0000000000
     23847       192  DOPC      C213           24.7201803558      -34.2382091255       -5.2171212337  MEMB      192             0.0000000000
     23848       192  DOPC      H13R           24.9870040652      -33.3665419734       -4.5820437457  MEMB      192             0.0000000000
     23849       192  DOPC      H13S           25.2518847918      -34.0880904858       -6.1810068560  MEMB      192             0.0000000000
     23850       192  DOPC      C214           25.0922482400      -35.4221168337       -4.3748711756  MEMB      192             0.0000000000
     23851       192  DOPC      H14R           25.0333242391      -36.4407196144       -4.8145274492  MEMB      192             0.0000000000
     23852       192  DOPC      H14S           24.3916167611      -35.4275973983       -3.5126606350  MEMB      192             0.0000000000
     23853       192  DOPC      C215           26.5934391643      -35.4743189473       -3.9234375827  MEMB      192             0.0000000000
     23854       192  DOPC      H15R           27.1994112347      -35.6984504556       -4.8272536170  MEMB      192             0.0000000000
     23855       192  DOPC      H15S           26.7854551470      -36.2721777149       -3.1745234312  MEMB      192             0.0000000000
     23856       192  DOPC      C216           27.0848462990      -34.1961671937       -3.2045102440  MEMB      192             0.0000000000
     23857       192  DOPC      H16R           27.0659619338      -33.4439826848       -4.0219344999  MEMB      192             0.0000000000
     23858       192  DOPC      H16S           28.1292813578      -34.2887682469       -2.8372196813  MEMB      192             0.0000000000
     23859       192  DOPC      C217           26.3444487570      -33.5404649891       -1.9328867759  MEMB      192             0.0000000000
     23860       192  DOPC      H17R           25.2673535525      -33.4197998844       -2.1770741231  MEMB      192             0.0000000000
     23861       192  DOPC      H17S           26.8511925522      -32.5601790253       -1.8041568633  MEMB      192             0.0000000000
     23862       192  DOPC      C218           26.5604651929      -34.2537617097       -0.6496813956  MEMB      192             0.0000000000
     23863       192  DOPC      H18R           25.7866950169      -34.0487838289        0.1207632507  MEMB      192             0.0000000000
     23864       192  DOPC      H18S           27.5140549563      -34.0163975962       -0.1313699627  MEMB      192             0.0000000000
     23865       192  DOPC      H18T           26.7479980173      -35.3077549151       -0.9467504608  MEMB      192             0.0000000000
     23866       192  DOPC      C33            25.6343712253      -31.7200678836       -9.0925401916  MEMB      192             0.0000000000
     23867       192  DOPC      H3X            25.6284693728      -30.7538988027       -9.6409951581  MEMB      192             0.0000000000
     23868       192  DOPC      H3Y            26.5645826764      -31.7663997045       -8.4868328084  MEMB      192             0.0000000000
     23869       192  DOPC      C34            24.5119642669      -31.5405600978       -8.0933226229  MEMB      192             0.0000000000
     23870       192  DOPC      H4X            24.3879276465      -32.4701465739       -7.4976675456  MEMB      192             0.0000000000
     23871       192  DOPC      H4Y            23.6363572781      -31.4053143096       -8.7636518504  MEMB      192             0.0000000000
     23872       192  DOPC      C35            24.7057508565      -30.4757867021       -7.0860323701  MEMB      192             0.0000000000
     23873       192  DOPC      H5X            23.7648835676      -30.3574966656       -6.5071566492  MEMB      192             0.0000000000
     23874       192  DOPC      H5Y            24.9186380072      -29.5081886547       -7.5887785237  MEMB      192             0.0000000000
     23875       192  DOPC      C36            25.9109177703      -30.6965469072       -6.0944065425  MEMB      192             0.0000000000
     23876       192  DOPC      H6X            25.9303978404      -31.7694008780       -5.8064374253  MEMB      192             0.0000000000
     23877       192  DOPC      H6Y            26.8685525201      -30.4612930786       -6.6061803455  MEMB      192             0.0000000000
     23878       192  DOPC      C37            25.8837332000      -30.0147387508       -4.7417580378  MEMB      192             0.0000000000
     23879       192  DOPC      H7X            25.2889509607      -29.0825051617       -4.8489757911  MEMB      192             0.0000000000
     23880       192  DOPC      H7Y            25.3472351392      -30.6750040833       -4.0272365903  MEMB      192             0.0000000000
     23881       192  DOPC      C38            27.2136882532      -29.8366544612       -4.0183967161  MEMB      192             0.0000000000
     23882       192  DOPC      H8X            27.6954136170      -30.7696039806       -3.6552632312  MEMB      192             0.0000000000
     23883       192  DOPC      H8Y            26.8523100117      -29.4008781582       -3.0624547818  MEMB      192             0.0000000000
     23884       192  DOPC      C39            28.1633488576      -28.9156812848       -4.6599538272  MEMB      192             0.0000000000
     23885       192  DOPC      H9X            27.8548921719      -27.8624577752       -4.5852876483  MEMB      192             0.0000000000
     23886       192  DOPC      C310           29.1560435551      -29.2942738787       -5.4967934081  MEMB      192             0.0000000000
     23887       192  DOPC      H10X           29.5923820536      -28.4581010017       -6.0628531121  MEMB      192             0.0000000000
     23888       192  DOPC      C311           29.4681806279      -30.7429281518       -5.8599807607  MEMB      192             0.0000000000
     23889       192  DOPC      H11X           29.3934315780      -30.9646987700       -6.9460528602  MEMB      192             0.0000000000
     23890       192  DOPC      H11Y           28.6853917912      -31.4273430329       -5.4686515164  MEMB      192             0.0000000000
     23891       192  DOPC      C312           30.8989686239      -31.3031227786       -5.6017741338  MEMB      192             0.0000000000
     23892       192  DOPC      H12X           31.7244678209      -30.8508965016       -6.1919971864  MEMB      192             0.0000000000
     23893       192  DOPC      H12Y           30.8375368066      -32.3853133301       -5.8455166643  MEMB      192             0.0000000000
     23894       192  DOPC      C313           31.2515584261      -31.1311273121       -4.1682604977  MEMB      192             0.0000000000
     23895       192  DOPC      H13X           32.3514198849      -31.0017264209       -4.0794797697  MEMB      192             0.0000000000
     23896       192  DOPC      H13Y           30.9246833152      -30.1184374741       -3.8489915296  MEMB      192             0.0000000000
     23897       192  DOPC      C314           30.8511043615      -32.3370772133       -3.3580564000  MEMB      192             0.0000000000
     23898       192  DOPC      H14X           29.7794474580      -32.5434537970       -3.5660968858  MEMB      192             0.0000000000
     23899       192  DOPC      H14Y           31.4624138738      -33.1591279084       -3.7880028227  MEMB      192             0.0000000000
     23900       192  DOPC      C315           31.1686660871      -32.0822544776       -1.8323601044  MEMB      192             0.0000000000
     23901       192  DOPC      H15X           31.8908389322      -31.2455156280       -1.7198645654  MEMB      192             0.0000000000
     23902       192  DOPC      H15Y           31.5704520195      -33.0233485577       -1.3996579357  MEMB      192             0.0000000000
     23903       192  DOPC      C316           29.9850925807      -31.6394473857       -0.9803899177  MEMB      192             0.0000000000
     23904       192  DOPC      H16X           29.7723445074      -30.5860153575       -1.2620623356  MEMB      192             0.0000000000
     23905       192  DOPC      H16Y           29.1713857247      -32.3313086960       -1.2862148849  MEMB      192             0.0000000000
     23906       192  DOPC      C317           30.2210385773      -31.7221726678        0.5569079519  MEMB      192             0.0000000000
     23907       192  DOPC      H17X           30.6435739667      -32.6900073073        0.9019878430  MEMB      192             0.0000000000
     23908       192  DOPC      H17Y           30.9452331078      -30.9588604968        0.9135838879  MEMB      192             0.0000000000
     23909       192  DOPC      C318           28.9214819358      -31.5326394253        1.3066357057  MEMB      192             0.0000000000
     23910       192  DOPC      H18X           29.0738679715      -31.3883325896        2.3976324716  MEMB      192             0.0000000000
     23911       192  DOPC      H18Y           28.3074291845      -30.7189102739        0.8649272295  MEMB      192             0.0000000000
     23912       192  DOPC      H18Z           28.3211249792      -32.4632451348        1.2179431005  MEMB      192             0.0000000000
     23913       193  DOPC      N             -26.3643501153      -36.2428481992      -20.2339953346  MEMB      193             0.0000000000
     23914       193  DOPC      C12           -26.5846361442      -34.7516714902      -20.1490738214  MEMB      193             0.0000000000
     23915       193  DOPC      H12A          -26.8104324726      -34.2948102099      -21.1012786020  MEMB      193             0.0000000000
     23916       193  DOPC      H12B          -25.6016408189      -34.3976192495      -19.8756380994  MEMB      193             0.0000000000
     23917       193  DOPC      C13           -25.6410846732      -36.8196788780      -19.0176199173  MEMB      193             0.0000000000
     23918       193  DOPC      H13A          -26.1725299265      -36.4611122169      -18.1484847894  MEMB      193             0.0000000000
     23919       193  DOPC      H13B          -25.6984371199      -37.8971801387      -18.9717753443  MEMB      193             0.0000000000
     23920       193  DOPC      H13C          -24.6319622255      -36.4437590468      -19.0998162771  MEMB      193             0.0000000000
     23921       193  DOPC      C14           -25.3815848319      -36.6304795829      -21.2991101222  MEMB      193             0.0000000000
     23922       193  DOPC      H14A          -24.4502148340      -36.1487276395      -21.0405271582  MEMB      193             0.0000000000
     23923       193  DOPC      H14B          -25.3989486252      -37.7100349539      -21.3247779972  MEMB      193             0.0000000000
     23924       193  DOPC      H14C          -25.5644687925      -36.2207257082      -22.2814824287  MEMB      193             0.0000000000
     23925       193  DOPC      C15           -27.7159213102      -37.0067520379      -20.3670656657  MEMB      193             0.0000000000
     23926       193  DOPC      H15A          -28.1706746100      -36.6413271827      -21.2759463584  MEMB      193             0.0000000000
     23927       193  DOPC      H15B          -28.3136443134      -36.8110413225      -19.4890995007  MEMB      193             0.0000000000
     23928       193  DOPC      H15C          -27.4598872213      -38.0559019208      -20.3785236805  MEMB      193             0.0000000000
     23929       193  DOPC      C11           -27.4945445581      -34.3550112855      -18.9610926930  MEMB      193             0.0000000000
     23930       193  DOPC      H11A          -26.9712192451      -34.6723782149      -18.0338764955  MEMB      193             0.0000000000
     23931       193  DOPC      H11B          -27.5603683712      -33.2459778432      -18.9668362280  MEMB      193             0.0000000000
     23932       193  DOPC      P             -29.7028796905      -34.4724175931      -17.8075513257  MEMB      193             0.0000000000
     23933       193  DOPC      O13           -30.9188902352      -35.3383964229      -17.6696767036  MEMB      193             0.0000000000
     23934       193  DOPC      O14           -29.8410294447      -33.0201897925      -17.9983115796  MEMB      193             0.0000000000
     23935       193  DOPC      O12           -28.8119839957      -34.9510969892      -19.0033508426  MEMB      193             0.0000000000
     23936       193  DOPC      O11           -28.8729050017      -34.6860820719      -16.4931519954  MEMB      193             0.0000000000
     23937       193  DOPC      C1            -28.3784947900      -35.9648048878      -16.0623308385  MEMB      193             0.0000000000
     23938       193  DOPC      HA            -27.3563583164      -35.8094089940      -15.6556243830  MEMB      193             0.0000000000
     23939       193  DOPC      HB            -28.1976730909      -36.7012441904      -16.8742925063  MEMB      193             0.0000000000
     23940       193  DOPC      C2            -29.3043654284      -36.5393214260      -15.0691494083  MEMB      193             0.0000000000
     23941       193  DOPC      HS            -30.2577869432      -36.6550417607      -15.6276449759  MEMB      193             0.0000000000
     23942       193  DOPC      O21           -29.2978823591      -35.6149398029      -13.9131942058  MEMB      193             0.0000000000
     23943       193  DOPC      C21           -30.2796239935      -35.8238047153      -13.0794660983  MEMB      193             0.0000000000
     23944       193  DOPC      O22           -31.2309157692      -36.6000286225      -13.1796609398  MEMB      193             0.0000000000
     23945       193  DOPC      C22           -30.0907250452      -34.9283125646      -11.8440790473  MEMB      193             0.0000000000
     23946       193  DOPC      H2R           -30.7032414965      -34.0042815840      -11.9169594725  MEMB      193             0.0000000000
     23947       193  DOPC      H2S           -29.0243123118      -34.6683355887      -11.6723327013  MEMB      193             0.0000000000
     23948       193  DOPC      C3            -28.8654068835      -37.9929278274      -14.6145397931  MEMB      193             0.0000000000
     23949       193  DOPC      HX            -28.8803391109      -38.6846851594      -15.4837747897  MEMB      193             0.0000000000
     23950       193  DOPC      HY            -29.5069170243      -38.3115434985      -13.7652635952  MEMB      193             0.0000000000
     23951       193  DOPC      O31           -27.4523903668      -37.9409123434      -14.3060226643  MEMB      193             0.0000000000
     23952       193  DOPC      C31           -27.0802080560      -38.5812875128      -13.1676014064  MEMB      193             0.0000000000
     23953       193  DOPC      O32           -27.6077215546      -39.5396905586      -12.6530346755  MEMB      193             0.0000000000
     23954       193  DOPC      C32           -25.8039831839      -37.9124866664      -12.5846962434  MEMB      193             0.0000000000
     23955       193  DOPC      H2X           -25.8110128681      -38.2988131337      -11.5430516559  MEMB      193             0.0000000000
     23956       193  DOPC      H2Y           -24.9232548227      -38.2520052578      -13.1706704840  MEMB      193             0.0000000000
     23957       193  DOPC      C23           -30.5168784915      -35.6728794008      -10.5492076463  MEMB      193             0.0000000000
     23958       193  DOPC      H3R           -31.5788174252      -35.9502468625      -10.7214698518  MEMB      193             0.0000000000
     23959       193  DOPC      H3S           -30.5210478118      -35.0822493200       -9.6082182635  MEMB      193             0.0000000000
     23960       193  DOPC      C24           -29.6853066187      -36.9695116802      -10.1329420931  MEMB      193             0.0000000000
     23961       193  DOPC      H4R           -28.6846080757      -36.6792473237       -9.7473649114  MEMB      193             0.0000000000
     23962       193  DOPC      H4S           -29.5521216492      -37.6337840408      -11.0134674735  MEMB      193             0.0000000000
     23963       193  DOPC      C25           -30.3811843757      -37.8734811509       -9.0982479781  MEMB      193             0.0000000000
     23964       193  DOPC      H5R           -31.1038772949      -38.5504176826       -9.6020260194  MEMB      193             0.0000000000
     23965       193  DOPC      H5S           -30.9491640104      -37.2598411889       -8.3666974700  MEMB      193             0.0000000000
     23966       193  DOPC      C26           -29.4004795278      -38.7566553979       -8.2457514892  MEMB      193             0.0000000000
     23967       193  DOPC      H6R           -28.7100250785      -39.2284877348       -8.9771662189  MEMB      193             0.0000000000
     23968       193  DOPC      H6S           -29.9131773069      -39.5668516990       -7.6844631800  MEMB      193             0.0000000000
     23969       193  DOPC      C27           -28.4980795060      -37.8606570234       -7.3309444593  MEMB      193             0.0000000000
     23970       193  DOPC      H7R           -29.1261289110      -37.3310584197       -6.5830140243  MEMB      193             0.0000000000
     23971       193  DOPC      H7S           -28.0651571543      -36.9606584695       -7.8176702468  MEMB      193             0.0000000000
     23972       193  DOPC      C28           -27.3375160644      -38.6139107293       -6.5871315902  MEMB      193             0.0000000000
     23973       193  DOPC      H8R           -26.9870467521      -37.9760758185       -5.7476913500  MEMB      193             0.0000000000
     23974       193  DOPC      H8S           -26.5631448551      -38.8301516501       -7.3538844660  MEMB      193             0.0000000000
     23975       193  DOPC      C29           -27.7610691833      -39.9556203332       -6.1050128880  MEMB      193             0.0000000000
     23976       193  DOPC      H9R           -27.9461280596      -40.6623362407       -6.9273912254  MEMB      193             0.0000000000
     23977       193  DOPC      C210          -27.8373463202      -40.2697023992       -4.7831849793  MEMB      193             0.0000000000
     23978       193  DOPC      H10R          -28.1708730531      -41.2638673515       -4.4509264426  MEMB      193             0.0000000000
     23979       193  DOPC      C211          -27.4789154851      -39.4109038069       -3.6446661997  MEMB      193             0.0000000000
     23980       193  DOPC      H11R          -28.0661631323      -39.7175108367       -2.7527842712  MEMB      193             0.0000000000
     23981       193  DOPC      H11S          -27.8143051331      -38.3854975004       -3.9099522399  MEMB      193             0.0000000000
     23982       193  DOPC      C212          -25.9803680281      -39.3139960082       -3.3173362573  MEMB      193             0.0000000000
     23983       193  DOPC      H12R          -25.5320077334      -38.9355683879       -4.2607809989  MEMB      193             0.0000000000
     23984       193  DOPC      H12S          -25.6269831118      -40.3204405495       -3.0066774907  MEMB      193             0.0000000000
     23985       193  DOPC      C213          -25.6278590853      -38.3553993819       -2.1364471958  MEMB      193             0.0000000000
     23986       193  DOPC      H13R          -24.7438995843      -38.6726022173       -1.5428842545  MEMB      193             0.0000000000
     23987       193  DOPC      H13S          -26.6071349751      -38.3659455365       -1.6118256311  MEMB      193             0.0000000000
     23988       193  DOPC      C214          -25.4132885222      -36.9059943100       -2.6075780653  MEMB      193             0.0000000000
     23989       193  DOPC      H14R          -26.3931387052      -36.7285967864       -3.1002692100  MEMB      193             0.0000000000
     23990       193  DOPC      H14S          -24.6453089887      -37.0487280073       -3.3976129075  MEMB      193             0.0000000000
     23991       193  DOPC      C215          -25.0166813170      -35.7789681570       -1.5930728875  MEMB      193             0.0000000000
     23992       193  DOPC      H15R          -24.2159401956      -36.1275391139       -0.9063162408  MEMB      193             0.0000000000
     23993       193  DOPC      H15S          -25.9414263222      -35.6872097261       -0.9841812590  MEMB      193             0.0000000000
     23994       193  DOPC      C216          -24.6481952735      -34.4627649507       -2.3039719490  MEMB      193             0.0000000000
     23995       193  DOPC      H16R          -24.3216634065      -33.7758191582       -1.4941557514  MEMB      193             0.0000000000
     23996       193  DOPC      H16S          -25.4816875372      -33.8682592773       -2.7354511712  MEMB      193             0.0000000000
     23997       193  DOPC      C217          -23.5977225860      -34.5411953775       -3.4375044320  MEMB      193             0.0000000000
     23998       193  DOPC      H17R          -23.4303014144      -33.4681936245       -3.6719357811  MEMB      193             0.0000000000
     23999       193  DOPC      H17S          -24.1442785450      -35.0585233206       -4.2547987432  MEMB      193             0.0000000000
     24000       193  DOPC      C218          -22.2820708857      -35.1207250358       -3.0574414187  MEMB      193             0.0000000000
     24001       193  DOPC      H18R          -21.5955292461      -35.1863508225       -3.9284605574  MEMB      193             0.0000000000
     24002       193  DOPC      H18S          -22.3782007151      -36.1601185976       -2.6769922480  MEMB      193             0.0000000000
     24003       193  DOPC      H18T          -21.7867053945      -34.4924458878       -2.2865978101  MEMB      193             0.0000000000
     24004       193  DOPC      C33           -26.0326260736      -36.3969088416      -12.6324708057  MEMB      193             0.0000000000
     24005       193  DOPC      H3X           -27.0587462728      -36.1205880206      -12.3083642083  MEMB      193             0.0000000000
     24006       193  DOPC      H3Y           -25.9039873429      -36.0462688470      -13.6788096104  MEMB      193             0.0000000000
     24007       193  DOPC      C34           -25.0609633729      -35.5890439982      -11.7428427723  MEMB      193             0.0000000000
     24008       193  DOPC      H4X           -25.2461167780      -34.4997623787      -11.6266327641  MEMB      193             0.0000000000
     24009       193  DOPC      H4Y           -24.0527757371      -35.6187321270      -12.2086723596  MEMB      193             0.0000000000
     24010       193  DOPC      C35           -25.0129203516      -36.1137437178      -10.2387641610  MEMB      193             0.0000000000
     24011       193  DOPC      H5X           -24.5746330496      -37.1289254745      -10.3466103357  MEMB      193             0.0000000000
     24012       193  DOPC      H5Y           -26.0227912830      -36.2784922874       -9.8059370327  MEMB      193             0.0000000000
     24013       193  DOPC      C36           -24.2606104957      -35.1282131598       -9.2775484431  MEMB      193             0.0000000000
     24014       193  DOPC      H6X           -23.1663766982      -35.1777633621       -9.4633391036  MEMB      193             0.0000000000
     24015       193  DOPC      H6Y           -24.5613405966      -34.0653601842       -9.3968211016  MEMB      193             0.0000000000
     24016       193  DOPC      C37           -24.3943100496      -35.5133998084       -7.7825779699  MEMB      193             0.0000000000
     24017       193  DOPC      H7X           -24.4500292924      -36.6230001666       -7.7843910885  MEMB      193             0.0000000000
     24018       193  DOPC      H7Y           -23.5137784838      -35.3435695688       -7.1267254634  MEMB      193             0.0000000000
     24019       193  DOPC      C38           -25.6326864907      -35.0537554598       -7.0345490523  MEMB      193             0.0000000000
     24020       193  DOPC      H8X           -25.7627986076      -35.7027775452       -6.1422702579  MEMB      193             0.0000000000
     24021       193  DOPC      H8Y           -26.5679393829      -35.3283052122       -7.5676958448  MEMB      193             0.0000000000
     24022       193  DOPC      C39           -25.6361163506      -33.6655898436       -6.6198124131  MEMB      193             0.0000000000
     24023       193  DOPC      H9X           -24.6360287954      -33.3698454444       -6.2700112437  MEMB      193             0.0000000000
     24024       193  DOPC      C310          -26.6558596929      -32.7603383068       -6.5797249690  MEMB      193             0.0000000000
     24025       193  DOPC      H10X          -26.4741738645      -31.7773157763       -6.1207514255  MEMB      193             0.0000000000
     24026       193  DOPC      C311          -28.1333639763      -33.0031651552       -6.9384834130  MEMB      193             0.0000000000
     24027       193  DOPC      H11X          -28.1755681933      -33.3510427132       -7.9927703780  MEMB      193             0.0000000000
     24028       193  DOPC      H11Y          -28.7864091864      -32.1120398505       -6.8212287409  MEMB      193             0.0000000000
     24029       193  DOPC      C312          -28.8584421557      -34.1876460408       -6.2249277181  MEMB      193             0.0000000000
     24030       193  DOPC      H12X          -28.4869492439      -35.2045360923       -6.4744245630  MEMB      193             0.0000000000
     24031       193  DOPC      H12Y          -29.9013917661      -34.1187821803       -6.6015377620  MEMB      193             0.0000000000
     24032       193  DOPC      C313          -28.6819732603      -34.0807638770       -4.6857686397  MEMB      193             0.0000000000
     24033       193  DOPC      H13X          -27.6301005697      -34.1592986685       -4.3368881738  MEMB      193             0.0000000000
     24034       193  DOPC      H13Y          -29.1465357577      -33.1564016110       -4.2807291043  MEMB      193             0.0000000000
     24035       193  DOPC      C314          -29.3927486678      -35.2505512016       -3.9910784754  MEMB      193             0.0000000000
     24036       193  DOPC      H14X          -30.4745685355      -35.2093647792       -4.2406592269  MEMB      193             0.0000000000
     24037       193  DOPC      H14Y          -29.0609121362      -36.2376729886       -4.3781134844  MEMB      193             0.0000000000
     24038       193  DOPC      C315          -29.2174570184      -35.2055065361       -2.4795128710  MEMB      193             0.0000000000
     24039       193  DOPC      H15X          -29.3165129401      -34.1509523889       -2.1442147863  MEMB      193             0.0000000000
     24040       193  DOPC      H15Y          -28.1974540585      -35.5453862301       -2.1995199656  MEMB      193             0.0000000000
     24041       193  DOPC      C316          -30.2248852500      -36.0872412371       -1.7067101989  MEMB      193             0.0000000000
     24042       193  DOPC      H16X          -31.2727330248      -35.8222698770       -1.9638602399  MEMB      193             0.0000000000
     24043       193  DOPC      H16Y          -30.0349159442      -37.1434198925       -1.9943191639  MEMB      193             0.0000000000
     24044       193  DOPC      C317          -30.0515676248      -35.9611287731       -0.2056888773  MEMB      193             0.0000000000
     24045       193  DOPC      H17X          -30.6342138652      -36.7411329421        0.3295082055  MEMB      193             0.0000000000
     24046       193  DOPC      H17Y          -29.0074943066      -36.2261895310        0.0662911834  MEMB      193             0.0000000000
     24047       193  DOPC      C318          -30.4889924363      -34.6180612829        0.3287769019  MEMB      193             0.0000000000
     24048       193  DOPC      H18X          -30.3100186333      -34.5487838695        1.4230757216  MEMB      193             0.0000000000
     24049       193  DOPC      H18Y          -29.8504302214      -33.8333137950       -0.1302783442  MEMB      193             0.0000000000
     24050       193  DOPC      H18Z          -31.5718772673      -34.5223230169        0.0996125921  MEMB      193             0.0000000000
     24051       194  23SM      N              27.1668031932       36.8217185460      -26.6814280279  MEMB      194             0.0000000000
     24052       194  23SM      C15            27.4465094199       38.2839580171      -26.2356783459  MEMB      194             0.0000000000
     24053       194  23SM      H15A           26.9322219511       38.4688498051      -25.3041615015  MEMB      194             0.0000000000
     24054       194  23SM      H15B           26.9925424005       38.8569636040      -27.0306492699  MEMB      194             0.0000000000
     24055       194  23SM      H15C           28.5149974481       38.4400354474      -26.2549964150  MEMB      194             0.0000000000
     24056       194  23SM      C14            25.7180373651       36.6937649058      -27.1952730347  MEMB      194             0.0000000000
     24057       194  23SM      H14A           25.5310935372       36.8841809444      -28.2417879322  MEMB      194             0.0000000000
     24058       194  23SM      H14B           24.9764724981       37.0842531057      -26.5140971579  MEMB      194             0.0000000000
     24059       194  23SM      H14C           25.5024648124       35.6474163103      -27.3536495248  MEMB      194             0.0000000000
     24060       194  23SM      C13            28.2644540251       36.4239754879      -27.6794358586  MEMB      194             0.0000000000
     24061       194  23SM      H13A           28.4683357315       37.2531011941      -28.3407851435  MEMB      194             0.0000000000
     24062       194  23SM      H13B           27.9373670406       35.5954154543      -28.2900932825  MEMB      194             0.0000000000
     24063       194  23SM      H13C           29.1777174851       36.1853274015      -27.1546530961  MEMB      194             0.0000000000
     24064       194  23SM      C12            27.2725778947       35.9866509227      -25.3862252721  MEMB      194             0.0000000000
     24065       194  23SM      H12A           26.8467900201       35.0310335099      -25.6543671002  MEMB      194             0.0000000000
     24066       194  23SM      H12B           26.7807187623       36.4766688152      -24.5589665347  MEMB      194             0.0000000000
     24067       194  23SM      C11            28.7251148740       35.7392806567      -24.7484042306  MEMB      194             0.0000000000
     24068       194  23SM      H11A           28.6486530501       35.3041316331      -23.7290320479  MEMB      194             0.0000000000
     24069       194  23SM      H11B           29.1906909271       36.7255266409      -24.5365582465  MEMB      194             0.0000000000
     24070       194  23SM      P              29.6857155942       33.5270395498      -25.6990348747  MEMB      194             0.0000000000
     24071       194  23SM      O13            28.4066639765       33.0209393694      -26.2158020553  MEMB      194             0.0000000000
     24072       194  23SM      O14            30.9086870660       33.2253032771      -26.4509523973  MEMB      194             0.0000000000
     24073       194  23SM      O11            29.7961692158       33.1592702208      -24.1651370781  MEMB      194             0.0000000000
     24074       194  23SM      O12            29.6680309386       35.0790856683      -25.5426288513  MEMB      194             0.0000000000
     24075       194  23SM      C1S            31.0809444097       33.0446747969      -23.5789417987  MEMB      194             0.0000000000
     24076       194  23SM      H1S            31.7899782543       33.8230916081      -23.9334265037  MEMB      194             0.0000000000
     24077       194  23SM      H1T            31.5511261058       32.0451612588      -23.6982010856  MEMB      194             0.0000000000
     24078       194  23SM      NF             32.1743292070       33.6579074397      -21.4411312055  MEMB      194             0.0000000000
     24079       194  23SM      HNF            32.8017041869       33.0029359456      -21.0270997930  MEMB      194             0.0000000000
     24080       194  23SM      C2S            30.9734462361       33.1980854797      -22.0938276690  MEMB      194             0.0000000000
     24081       194  23SM      H2S            30.1630402472       33.9508096121      -21.9890922207  MEMB      194             0.0000000000
     24082       194  23SM      C3S            30.5268708383       31.9111152890      -21.3994937626  MEMB      194             0.0000000000
     24083       194  23SM      H3S            31.3578117992       31.1738321437      -21.4159746217  MEMB      194             0.0000000000
     24084       194  23SM      O3             29.4600677721       31.2060133167      -21.9645081232  MEMB      194             0.0000000000
     24085       194  23SM      HO3            29.0939500822       31.6806024984      -22.7143899222  MEMB      194             0.0000000000
     24086       194  23SM      C4S            30.1961578208       32.3131571117      -19.9956656659  MEMB      194             0.0000000000
     24087       194  23SM      H4S            29.5751266433       33.1934847158      -19.7735319628  MEMB      194             0.0000000000
     24088       194  23SM      C5S            30.6309107699       31.6183182311      -18.9456610043  MEMB      194             0.0000000000
     24089       194  23SM      H5S            31.2040021684       30.7140230489      -19.1982792053  MEMB      194             0.0000000000
     24090       194  23SM      C6S            30.4632663107       31.8720302337      -17.4534353558  MEMB      194             0.0000000000
     24091       194  23SM      H6S            30.0372277063       31.0179224501      -16.8848298987  MEMB      194             0.0000000000
     24092       194  23SM      H6T            29.7173686811       32.6731549308      -17.2632860216  MEMB      194             0.0000000000
     24093       194  23SM      C7S            31.6048586439       32.6028521115      -16.7039108066  MEMB      194             0.0000000000
     24094       194  23SM      H7S            31.1912766837       33.1718409218      -15.8439562186  MEMB      194             0.0000000000
     24095       194  23SM      H7T            32.1265387052       33.3946374299      -17.2829163568  MEMB      194             0.0000000000
     24096       194  23SM      C8S            32.5426073908       31.5495617508      -16.0799768078  MEMB      194             0.0000000000
     24097       194  23SM      H8S            33.2397290603       31.1729899340      -16.8587812651  MEMB      194             0.0000000000
     24098       194  23SM      H8T            31.8609104465       30.7309059535      -15.7646786864  MEMB      194             0.0000000000
     24099       194  23SM      C9S            33.2649209749       31.9699472099      -14.7424448382  MEMB      194             0.0000000000
     24100       194  23SM      H9S            33.7184591605       32.9765159926      -14.8667165947  MEMB      194             0.0000000000
     24101       194  23SM      H9T            34.0656783516       31.2731142432      -14.4145249892  MEMB      194             0.0000000000
     24102       194  23SM      C10S           32.3868391269       32.1728083132      -13.5431239812  MEMB      194             0.0000000000
     24103       194  23SM      H10S           31.7944339495       31.2587826747      -13.3241854452  MEMB      194             0.0000000000
     24104       194  23SM      H10T           31.7780172104       33.0899537643      -13.6931273308  MEMB      194             0.0000000000
     24105       194  23SM      C11S           33.1904164018       32.3685268183      -12.2212949124  MEMB      194             0.0000000000
     24106       194  23SM      H11S           34.0835084400       32.9966626110      -12.4266070751  MEMB      194             0.0000000000
     24107       194  23SM      H11T           33.6599650404       31.4735469526      -11.7599318328  MEMB      194             0.0000000000
     24108       194  23SM      C12S           32.4220306477       32.9603590814      -10.9702031964  MEMB      194             0.0000000000
     24109       194  23SM      H12S           31.6399942265       32.1886369322      -10.8053244654  MEMB      194             0.0000000000
     24110       194  23SM      H12T           31.8059335407       33.8380037245      -11.2608663302  MEMB      194             0.0000000000
     24111       194  23SM      C13S           33.3171344594       33.2399890144       -9.7326909534  MEMB      194             0.0000000000
     24112       194  23SM      H13S           34.3497200819       33.5774745339       -9.9654813171  MEMB      194             0.0000000000
     24113       194  23SM      H13T           33.4649447732       32.2767466164       -9.1991775999  MEMB      194             0.0000000000
     24114       194  23SM      C14S           32.8200679939       34.2985529163       -8.7937755253  MEMB      194             0.0000000000
     24115       194  23SM      H14S           31.9575726725       33.8436700379       -8.2613243168  MEMB      194             0.0000000000
     24116       194  23SM      H14T           32.5005830284       35.1807538763       -9.3887309185  MEMB      194             0.0000000000
     24117       194  23SM      C15S           33.9037010058       34.6337164057       -7.7156052300  MEMB      194             0.0000000000
     24118       194  23SM      H15S           33.9455987006       35.7384582544       -7.6055552540  MEMB      194             0.0000000000
     24119       194  23SM      H15T           34.8488000756       34.3266112205       -8.2123907149  MEMB      194             0.0000000000
     24120       194  23SM      C16S           33.6938469648       33.8854272221       -6.4642311080  MEMB      194             0.0000000000
     24121       194  23SM      H16S           33.7581520721       32.7777588196       -6.5212958075  MEMB      194             0.0000000000
     24122       194  23SM      H16T           32.6500554819       33.9574798394       -6.0905618190  MEMB      194             0.0000000000
     24123       194  23SM      C17S           34.5265558425       34.3779524625       -5.2889657690  MEMB      194             0.0000000000
     24124       194  23SM      H17S           34.3979331311       35.4733728816       -5.1554316155  MEMB      194             0.0000000000
     24125       194  23SM      H17T           35.5694080288       34.2580134550       -5.6528264934  MEMB      194             0.0000000000
     24126       194  23SM      C18S           34.0767005222       33.6151137233       -4.0461069113  MEMB      194             0.0000000000
     24127       194  23SM      H18S           34.5502617149       33.8343459916       -3.0652932251  MEMB      194             0.0000000000
     24128       194  23SM      H18T           34.2142939227       32.5328334587       -4.2560089540  MEMB      194             0.0000000000
     24129       194  23SM      H18U           32.9928636064       33.8088151969       -3.8974519015  MEMB      194             0.0000000000
     24130       194  23SM      C1F            32.5810819992       34.9473605948      -21.6261011581  MEMB      194             0.0000000000
     24131       194  23SM      OF             31.9670170793       35.7563758123      -22.2759418360  MEMB      194             0.0000000000
     24132       194  23SM      C2F            33.9656490231       35.2028174489      -21.0781177314  MEMB      194             0.0000000000
     24133       194  23SM      H2F            34.6875209266       34.4307056330      -21.4202658178  MEMB      194             0.0000000000
     24134       194  23SM      H2G            34.0612697207       35.0897309597      -19.9770324308  MEMB      194             0.0000000000
     24135       194  23SM      C3F            34.5135628873       36.5838512926      -21.4981276066  MEMB      194             0.0000000000
     24136       194  23SM      H3F            34.0845543488       37.0377279447      -22.4169683437  MEMB      194             0.0000000000
     24137       194  23SM      H3G            35.5990887250       36.5301830492      -21.7285063974  MEMB      194             0.0000000000
     24138       194  23SM      C4F            34.4154691596       37.5768769844      -20.3790688026  MEMB      194             0.0000000000
     24139       194  23SM      H4F            34.7300477400       38.5899769679      -20.7092041655  MEMB      194             0.0000000000
     24140       194  23SM      H4G            35.0397217343       37.2918726744      -19.5053401161  MEMB      194             0.0000000000
     24141       194  23SM      C5F            33.0570146412       37.8599536788      -19.6704644556  MEMB      194             0.0000000000
     24142       194  23SM      H5F            32.5840483276       36.9697351192      -19.2034152527  MEMB      194             0.0000000000
     24143       194  23SM      H5G            32.4191136258       38.3505157466      -20.4364623400  MEMB      194             0.0000000000
     24144       194  23SM      C6F            33.2271715098       38.8172733350      -18.4469529496  MEMB      194             0.0000000000
     24145       194  23SM      H6F            33.6863858439       39.7549728977      -18.8266412781  MEMB      194             0.0000000000
     24146       194  23SM      H6G            34.0367701812       38.3752822122      -17.8276677845  MEMB      194             0.0000000000
     24147       194  23SM      C7F            32.0388765130       39.2977189093      -17.6168255346  MEMB      194             0.0000000000
     24148       194  23SM      H7F            31.1899156407       39.5864535243      -18.2727355190  MEMB      194             0.0000000000
     24149       194  23SM      H7G            32.2308942236       40.1624138453      -16.9461894237  MEMB      194             0.0000000000
     24150       194  23SM      C8F            31.3394501460       38.1997920368      -16.7606908292  MEMB      194             0.0000000000
     24151       194  23SM      H8F            30.9547190966       37.5118446664      -17.5436541097  MEMB      194             0.0000000000
     24152       194  23SM      H8G            30.4988632922       38.6719442380      -16.2085979906  MEMB      194             0.0000000000
     24153       194  23SM      C9F            32.3154017364       37.5598912265      -15.7470951450  MEMB      194             0.0000000000
     24154       194  23SM      H9F            32.8024895244       38.3564385205      -15.1449498947  MEMB      194             0.0000000000
     24155       194  23SM      H9G            33.1101061002       37.0912728349      -16.3660965766  MEMB      194             0.0000000000
     24156       194  23SM      C10F           31.7009022094       36.5513923886      -14.7848379079  MEMB      194             0.0000000000
     24157       194  23SM      H10F           32.6173154224       36.2925334072      -14.2125615730  MEMB      194             0.0000000000
     24158       194  23SM      H10G           31.2357373923       35.6944425398      -15.3173597858  MEMB      194             0.0000000000
     24159       194  23SM      C11F           30.6506277062       37.0768412538      -13.8610494729  MEMB      194             0.0000000000
     24160       194  23SM      H11F           29.7063330084       37.1133093021      -14.4452572273  MEMB      194             0.0000000000
     24161       194  23SM      H11G           30.7017880301       38.1604249365      -13.6211538322  MEMB      194             0.0000000000
     24162       194  23SM      C12F           30.3933883553       36.2253380707      -12.6464382801  MEMB      194             0.0000000000
     24163       194  23SM      H12F           30.3690962349       36.9484746515      -11.8033466029  MEMB      194             0.0000000000
     24164       194  23SM      H12G           31.2904985292       35.5700783884      -12.6342293494  MEMB      194             0.0000000000
     24165       194  23SM      C13F           29.1210973466       35.4019915515      -12.7844796362  MEMB      194             0.0000000000
     24166       194  23SM      H13F           29.2667510677       34.6014392959      -13.5409333044  MEMB      194             0.0000000000
     24167       194  23SM      H13G           28.2796087244       36.0909799473      -13.0114438941  MEMB      194             0.0000000000
     24168       194  23SM      C14F           28.7155743042       34.6412036343      -11.4922393207  MEMB      194             0.0000000000
     24169       194  23SM      H14F           29.3575200282       33.7751939090      -11.2234387288  MEMB      194             0.0000000000
     24170       194  23SM      H14G           27.7437886477       34.1779179650      -11.7666854591  MEMB      194             0.0000000000
     24171       194  23SM      C15F           28.5517567911       35.5505715139      -10.1790733477  MEMB      194             0.0000000000
     24172       194  23SM      H15F           27.8494309444       36.3804760294      -10.4078058698  MEMB      194             0.0000000000
     24173       194  23SM      H15G           29.5530909475       35.9752547190       -9.9525896787  MEMB      194             0.0000000000
     24174       194  23SM      C16F           27.7850530750       34.8527094551       -9.0805889427  MEMB      194             0.0000000000
     24175       194  23SM      H16F           26.7812896883       34.5068929447       -9.4079885068  MEMB      194             0.0000000000
     24176       194  23SM      H16G           27.5759663091       35.7255728357       -8.4258258342  MEMB      194             0.0000000000
     24177       194  23SM      C17F           28.4730682689       33.7791508706       -8.2133560668  MEMB      194             0.0000000000
     24178       194  23SM      H17F           28.9438008659       33.0653345747       -8.9227204647  MEMB      194             0.0000000000
     24179       194  23SM      H17G           27.7198968627       33.4026521518       -7.4885784853  MEMB      194             0.0000000000
     24180       194  23SM      C18F           29.4969158118       34.3254159282       -7.1545826455  MEMB      194             0.0000000000
     24181       194  23SM      H18F           30.2451370079       34.9253809434       -7.7154101377  MEMB      194             0.0000000000
     24182       194  23SM      H18G           30.0110327059       33.3795391649       -6.8801328267  MEMB      194             0.0000000000
     24183       194  23SM      C19F           28.9046531306       35.0331384311       -5.9237901203  MEMB      194             0.0000000000
     24184       194  23SM      H19F           28.1900089974       34.3112775452       -5.4737666020  MEMB      194             0.0000000000
     24185       194  23SM      H19G           28.1847704739       35.8091137375       -6.2613563985  MEMB      194             0.0000000000
     24186       194  23SM      C20F           29.9171605570       35.6544454906       -4.8498399874  MEMB      194             0.0000000000
     24187       194  23SM      H20F           30.4665803040       36.5163638133       -5.2852207837  MEMB      194             0.0000000000
     24188       194  23SM      H20G           30.5951030621       34.8640835474       -4.4624864820  MEMB      194             0.0000000000
     24189       194  23SM      C21F           29.2015034666       36.3686245140       -3.7130812245  MEMB      194             0.0000000000
     24190       194  23SM      H21F           28.6369642016       35.5625401383       -3.1974808913  MEMB      194             0.0000000000
     24191       194  23SM      H21G           28.5476578153       37.2166284403       -4.0092187585  MEMB      194             0.0000000000
     24192       194  23SM      C22F           30.1360606969       36.9483823846       -2.6187026608  MEMB      194             0.0000000000
     24193       194  23SM      H22F           29.5450640426       37.6222399711       -1.9622275522  MEMB      194             0.0000000000
     24194       194  23SM      H22G           30.8755890965       37.5257475104       -3.2137381023  MEMB      194             0.0000000000
     24195       194  23SM      C23F           30.8752386694       35.9010820909       -1.7813978343  MEMB      194             0.0000000000
     24196       194  23SM      H23F           30.1457484520       35.1593484230       -1.3915316725  MEMB      194             0.0000000000
     24197       194  23SM      H23G           31.3392229801       36.3345326877       -0.8697199327  MEMB      194             0.0000000000
     24198       194  23SM      H23H           31.7631169793       35.4398332385       -2.2643498705  MEMB      194             0.0000000000
     24199       195  CHL1      C3            -36.7504416884       27.4128611201      -17.3086000000  MEMB      195             0.0000000000
     24200       195  CHL1      H3            -37.7654732451       27.1546656862      -16.9379700000  MEMB      195             0.0000000000
     24201       195  CHL1      O3            -36.8335809116       27.5709206799      -18.6914000000  MEMB      195             0.0000000000
     24202       195  CHL1      H3'           -37.5332100704       26.9857583750      -18.9909200000  MEMB      195             0.0000000000
     24203       195  CHL1      C4            -36.2744859294       28.7438403797      -16.7064300000  MEMB      195             0.0000000000
     24204       195  CHL1      H4A           -35.2339616739       28.8752755958      -17.0729900000  MEMB      195             0.0000000000
     24205       195  CHL1      H4B           -36.8815135509       29.5914329776      -17.0903800000  MEMB      195             0.0000000000
     24206       195  CHL1      C5            -36.1763185829       28.5918850080      -15.2097200000  MEMB      195             0.0000000000
     24207       195  CHL1      C6            -36.9150500889       29.3429358575      -14.4253900000  MEMB      195             0.0000000000
     24208       195  CHL1      H6            -37.6266453938       30.0622905387      -14.8568700000  MEMB      195             0.0000000000
     24209       195  CHL1      C7            -36.8435095244       29.2664231408      -12.8921100000  MEMB      195             0.0000000000
     24210       195  CHL1      H7A           -36.9618333617       30.2411472919      -12.3722700000  MEMB      195             0.0000000000
     24211       195  CHL1      H7B           -37.5507719745       28.4899899362      -12.5298600000  MEMB      195             0.0000000000
     24212       195  CHL1      C8            -35.5384406862       28.5648997284      -12.4831300000  MEMB      195             0.0000000000
     24213       195  CHL1      H8            -34.5972994247       29.1170484973      -12.6921800000  MEMB      195             0.0000000000
     24214       195  CHL1      C14           -35.6136729680       28.2883669675      -11.0056100000  MEMB      195             0.0000000000
     24215       195  CHL1      H14           -36.4807265532       27.6011413125      -10.9043700000  MEMB      195             0.0000000000
     24216       195  CHL1      C15           -35.9962188046       29.4511437693      -10.0689500000  MEMB      195             0.0000000000
     24217       195  CHL1      H15A          -35.4927802869       30.3734163138      -10.4299000000  MEMB      195             0.0000000000
     24218       195  CHL1      H15B          -37.0780256645       29.6967355404      -10.1298000000  MEMB      195             0.0000000000
     24219       195  CHL1      C16           -35.6256496273       29.0029974819       -8.6811900000  MEMB      195             0.0000000000
     24220       195  CHL1      H16A          -35.0147454361       29.8063886674       -8.2167500000  MEMB      195             0.0000000000
     24221       195  CHL1      H16B          -36.5084021389       28.7723855707       -8.0472500000  MEMB      195             0.0000000000
     24222       195  CHL1      C17           -34.8661867492       27.6353811653       -8.9298900000  MEMB      195             0.0000000000
     24223       195  CHL1      H17           -35.6065683257       26.8079086281       -8.8920200000  MEMB      195             0.0000000000
     24224       195  CHL1      C13           -34.4646163320       27.5694219096      -10.4246500000  MEMB      195             0.0000000000
     24225       195  CHL1      C18           -33.2387451425       28.3774991532      -10.5852100000  MEMB      195             0.0000000000
     24226       195  CHL1      H18A          -32.9550975193       28.3837086883      -11.6593800000  MEMB      195             0.0000000000
     24227       195  CHL1      H18B          -33.2120388316       29.4344801832      -10.2440600000  MEMB      195             0.0000000000
     24228       195  CHL1      H18C          -32.3838122829       27.9086890377      -10.0526500000  MEMB      195             0.0000000000
     24229       195  CHL1      C12           -34.3225740539       26.1698423001      -11.1422700000  MEMB      195             0.0000000000
     24230       195  CHL1      H12A          -33.3759791357       25.6987466864      -10.8011900000  MEMB      195             0.0000000000
     24231       195  CHL1      H12B          -35.1051072367       25.4356257899      -10.8543500000  MEMB      195             0.0000000000
     24232       195  CHL1      C11           -34.3185560300       26.3071877786      -12.6919200000  MEMB      195             0.0000000000
     24233       195  CHL1      H11A          -33.3088591836       26.7569628719      -12.8039100000  MEMB      195             0.0000000000
     24234       195  CHL1      H11B          -34.3601487331       25.3267408471      -13.2128100000  MEMB      195             0.0000000000
     24235       195  CHL1      C9            -35.3837755083       27.2809265011      -13.2342000000  MEMB      195             0.0000000000
     24236       195  CHL1      H9            -36.3323930705       26.7618122266      -12.9793100000  MEMB      195             0.0000000000
     24237       195  CHL1      C10           -35.2065781616       27.4884020920      -14.7842300000  MEMB      195             0.0000000000
     24238       195  CHL1      C19           -33.7959716232       27.7854634377      -15.0895900000  MEMB      195             0.0000000000
     24239       195  CHL1      H19A          -33.4452831954       28.6119397163      -14.4351600000  MEMB      195             0.0000000000
     24240       195  CHL1      H19B          -33.1655226031       26.9075292349      -14.8325200000  MEMB      195             0.0000000000
     24241       195  CHL1      H19C          -33.4526828916       28.0369044828      -16.1158800000  MEMB      195             0.0000000000
     24242       195  CHL1      C1            -35.6547457037       26.1113074867      -15.4641100000  MEMB      195             0.0000000000
     24243       195  CHL1      H1A           -34.9787372276       25.2563850390      -15.2486000000  MEMB      195             0.0000000000
     24244       195  CHL1      H1B           -36.7104062943       25.9326885852      -15.1674700000  MEMB      195             0.0000000000
     24245       195  CHL1      C2            -35.7495723264       26.2593229390      -17.0099400000  MEMB      195             0.0000000000
     24246       195  CHL1      H2A           -36.1724686041       25.3320021384      -17.4521600000  MEMB      195             0.0000000000
     24247       195  CHL1      H2B           -34.7790394749       26.5811857463      -17.4444500000  MEMB      195             0.0000000000
     24248       195  CHL1      C20           -33.8034853595       27.3802811288       -7.8477300000  MEMB      195             0.0000000000
     24249       195  CHL1      H20           -33.1590413595       28.2846787063       -7.8807700000  MEMB      195             0.0000000000
     24250       195  CHL1      C21           -32.9468496322       26.1191226135       -8.0637000000  MEMB      195             0.0000000000
     24251       195  CHL1      H21A          -32.2501112623       25.9750284858       -7.2104100000  MEMB      195             0.0000000000
     24252       195  CHL1      H21B          -32.2781998629       26.3522351016       -8.9197900000  MEMB      195             0.0000000000
     24253       195  CHL1      H21C          -33.5332941541       25.1890290879       -8.2228200000  MEMB      195             0.0000000000
     24254       195  CHL1      C22           -34.4241502321       27.2833924664       -6.4209700000  MEMB      195             0.0000000000
     24255       195  CHL1      H22A          -35.0717791452       28.1849085028       -6.3743000000  MEMB      195             0.0000000000
     24256       195  CHL1      H22B          -34.9381254479       26.3356174967       -6.1528600000  MEMB      195             0.0000000000
     24257       195  CHL1      C23           -33.4418348573       27.5163660064       -5.2598700000  MEMB      195             0.0000000000
     24258       195  CHL1      H23A          -32.7574057575       26.6450478368       -5.1782100000  MEMB      195             0.0000000000
     24259       195  CHL1      H23B          -32.9190546366       28.4745721260       -5.4669000000  MEMB      195             0.0000000000
     24260       195  CHL1      C24           -34.1605204928       27.7683778121       -3.9021100000  MEMB      195             0.0000000000
     24261       195  CHL1      H24A          -34.9164553651       28.5793293560       -3.9745000000  MEMB      195             0.0000000000
     24262       195  CHL1      H24B          -34.7709911891       26.8593969236       -3.7139600000  MEMB      195             0.0000000000
     24263       195  CHL1      C25           -33.3309798115       27.9770694196       -2.6167400000  MEMB      195             0.0000000000
     24264       195  CHL1      H25           -34.0629173083       28.0120050536       -1.7816600000  MEMB      195             0.0000000000
     24265       195  CHL1      C26           -32.6015395881       26.7405815241       -2.2786900000  MEMB      195             0.0000000000
     24266       195  CHL1      H26A          -31.6515526673       26.7111767144       -2.8540100000  MEMB      195             0.0000000000
     24267       195  CHL1      H26B          -32.3273403324       26.6127299934       -1.2096800000  MEMB      195             0.0000000000
     24268       195  CHL1      H26C          -33.1560614914       25.8246853582       -2.5752600000  MEMB      195             0.0000000000
     24269       195  CHL1      C27           -32.3732795687       29.1867344866       -2.7155400000  MEMB      195             0.0000000000
     24270       195  CHL1      H27A          -31.7680391031       29.2476115276       -1.7858700000  MEMB      195             0.0000000000
     24271       195  CHL1      H27B          -31.5561351382       29.0467788429       -3.4551400000  MEMB      195             0.0000000000
     24272       195  CHL1      H27C          -32.9155650135       30.1427779672       -2.8774900000  MEMB      195             0.0000000000
     24273       196  DOPE      N              37.2365504432      -28.3323003075      -21.8305605668  MEMB      196             0.0000000000
     24274       196  DOPE      HN1            36.4634657253      -28.3175424259      -21.1350592516  MEMB      196             0.0000000000
     24275       196  DOPE      HN2            37.1391011117      -27.4754155993      -22.4118112127  MEMB      196             0.0000000000
     24276       196  DOPE      HN3            37.2972450471      -29.1668578107      -22.4481608356  MEMB      196             0.0000000000
     24277       196  DOPE      C12            38.5755125773      -28.3844936609      -21.0247213968  MEMB      196             0.0000000000
     24278       196  DOPE      H12A           39.4178729107      -28.3221390700      -21.7464288607  MEMB      196             0.0000000000
     24279       196  DOPE      H12B           38.6757883083      -29.2732150677      -20.3656005359  MEMB      196             0.0000000000
     24280       196  DOPE      C11            38.7229005976      -27.1527758639      -20.1809284519  MEMB      196             0.0000000000
     24281       196  DOPE      H11A           38.7421342379      -26.1701139044      -20.6989308634  MEMB      196             0.0000000000
     24282       196  DOPE      H11B           39.6588941079      -27.2764831165      -19.5953230268  MEMB      196             0.0000000000
     24283       196  DOPE      P              37.7092738230      -27.5818122715      -17.7773094704  MEMB      196             0.0000000000
     24284       196  DOPE      O13            38.2997479321      -28.9753613846      -17.7645699714  MEMB      196             0.0000000000
     24285       196  DOPE      O14            36.3947573952      -27.4273892936      -17.0157089918  MEMB      196             0.0000000000
     24286       196  DOPE      O11            38.7443169483      -26.6167761227      -17.1324209623  MEMB      196             0.0000000000
     24287       196  DOPE      O12            37.6310362822      -26.9572342939      -19.2737801947  MEMB      196             0.0000000000
     24288       196  DOPE      C1             38.8397484193      -25.2512287863      -17.4909897314  MEMB      196             0.0000000000
     24289       196  DOPE      HA             38.1243210463      -24.7731287825      -18.1937734963  MEMB      196             0.0000000000
     24290       196  DOPE      HB             39.7798762728      -25.1631952664      -18.0764218479  MEMB      196             0.0000000000
     24291       196  DOPE      C2             38.8090125497      -24.2856016074      -16.2235231979  MEMB      196             0.0000000000
     24292       196  DOPE      HS             39.0262550612      -23.2252707497      -16.4741730155  MEMB      196             0.0000000000
     24293       196  DOPE      O21            39.9185392623      -24.6857394535      -15.3984806271  MEMB      196             0.0000000000
     24294       196  DOPE      C21            40.5396406946      -23.8304135731      -14.6027835891  MEMB      196             0.0000000000
     24295       196  DOPE      O22            40.2926998518      -22.6458281423      -14.5049670312  MEMB      196             0.0000000000
     24296       196  DOPE      C22            41.5552938312      -24.6280511159      -13.7335510385  MEMB      196             0.0000000000
     24297       196  DOPE      H2R            42.5304714959      -24.3818165031      -14.2054810582  MEMB      196             0.0000000000
     24298       196  DOPE      H2S            41.3770553197      -25.7166940093      -13.8654923843  MEMB      196             0.0000000000
     24299       196  DOPE      C3             37.5648809136      -24.3026423116      -15.3683489332  MEMB      196             0.0000000000
     24300       196  DOPE      HX             36.5781358157      -24.0490743064      -15.8114722334  MEMB      196             0.0000000000
     24301       196  DOPE      HY             37.7216375438      -23.5841758044      -14.5355497380  MEMB      196             0.0000000000
     24302       196  DOPE      O31            37.3936525672      -25.6677972054      -14.8196547428  MEMB      196             0.0000000000
     24303       196  DOPE      C31            37.6402832721      -25.9640540370      -13.4577484762  MEMB      196             0.0000000000
     24304       196  DOPE      O32            38.0952560197      -25.1682954571      -12.6159595201  MEMB      196             0.0000000000
     24305       196  DOPE      C32            37.3387077268      -27.4920694750      -13.2105385063  MEMB      196             0.0000000000
     24306       196  DOPE      H2X            37.2650401663      -27.7271977902      -12.1272060767  MEMB      196             0.0000000000
     24307       196  DOPE      H2Y            36.3795915104      -27.5602633629      -13.7671055463  MEMB      196             0.0000000000
     24308       196  DOPE      C23            41.5203596760      -24.2073968764      -12.2694702738  MEMB      196             0.0000000000
     24309       196  DOPE      H3R            40.4925617872      -24.0745616254      -11.8690862817  MEMB      196             0.0000000000
     24310       196  DOPE      H3S            41.9082400686      -23.1968538055      -12.0191262729  MEMB      196             0.0000000000
     24311       196  DOPE      C24            42.0761963596      -25.2799342143      -11.2515127059  MEMB      196             0.0000000000
     24312       196  DOPE      H4R            43.1504850924      -25.4719195029      -11.4597582604  MEMB      196             0.0000000000
     24313       196  DOPE      H4S            41.5343089017      -26.2417029496      -11.3767320848  MEMB      196             0.0000000000
     24314       196  DOPE      C25            41.9126343168      -24.9220958247       -9.6960622001  MEMB      196             0.0000000000
     24315       196  DOPE      H5R            42.0372478460      -25.8624688951       -9.1177101720  MEMB      196             0.0000000000
     24316       196  DOPE      H5S            40.9426726180      -24.4062929537       -9.5304040238  MEMB      196             0.0000000000
     24317       196  DOPE      C26            42.9627352435      -23.9081400847       -9.1778903428  MEMB      196             0.0000000000
     24318       196  DOPE      H6R            42.3951226832      -22.9875643750       -9.4322068270  MEMB      196             0.0000000000
     24319       196  DOPE      H6S            43.7980124688      -24.0245196976       -9.9011384965  MEMB      196             0.0000000000
     24320       196  DOPE      C27            43.3965004023      -23.9666372801       -7.6468458164  MEMB      196             0.0000000000
     24321       196  DOPE      H7R            42.4150961127      -23.8278850762       -7.1449355543  MEMB      196             0.0000000000
     24322       196  DOPE      H7S            44.0335033092      -23.1208442892       -7.3104194156  MEMB      196             0.0000000000
     24323       196  DOPE      C28            44.0714624893      -25.3085981977       -7.1897957767  MEMB      196             0.0000000000
     24324       196  DOPE      H8R            44.7297632895      -24.9996668686       -6.3498424393  MEMB      196             0.0000000000
     24325       196  DOPE      H8S            44.7951006201      -25.5818086093       -7.9873077430  MEMB      196             0.0000000000
     24326       196  DOPE      C29            43.1289320756      -26.3960042858       -6.7235816833  MEMB      196             0.0000000000
     24327       196  DOPE      H9R            42.1241860746      -26.3462213612       -7.1685616664  MEMB      196             0.0000000000
     24328       196  DOPE      C210           43.4324121949      -27.4462077936       -5.9449410678  MEMB      196             0.0000000000
     24329       196  DOPE      H10R           42.6372367113      -28.1807650090       -5.7496936668  MEMB      196             0.0000000000
     24330       196  DOPE      C211           44.8017233166      -27.7258601050       -5.3433001214  MEMB      196             0.0000000000
     24331       196  DOPE      H11R           45.6632204161      -27.0820274816       -5.6219091338  MEMB      196             0.0000000000
     24332       196  DOPE      H11S           45.2431653447      -28.6905843773       -5.6730824736  MEMB      196             0.0000000000
     24333       196  DOPE      C212           44.9278030095      -27.6198632182       -3.7718560739  MEMB      196             0.0000000000
     24334       196  DOPE      H12R           44.4580212524      -26.6634268401       -3.4574423313  MEMB      196             0.0000000000
     24335       196  DOPE      H12S           46.0162301240      -27.6351585896       -3.5495647056  MEMB      196             0.0000000000
     24336       196  DOPE      C213           44.1568686418      -28.6950133622       -2.9698635392  MEMB      196             0.0000000000
     24337       196  DOPE      H13R           44.4952112813      -29.6634906783       -3.3963570721  MEMB      196             0.0000000000
     24338       196  DOPE      H13S           43.0946160123      -28.5056483223       -3.2345908317  MEMB      196             0.0000000000
     24339       196  DOPE      C214           44.3629255393      -28.8072146740       -1.3807469948  MEMB      196             0.0000000000
     24340       196  DOPE      H14R           44.2655090111      -27.8255912440       -0.8696230878  MEMB      196             0.0000000000
     24341       196  DOPE      H14S           45.3972006778      -29.1866403906       -1.2371050415  MEMB      196             0.0000000000
     24342       196  DOPE      C215           43.3931187357      -29.7670538560       -0.6395066448  MEMB      196             0.0000000000
     24343       196  DOPE      H15R           43.7183321595      -29.9154260262        0.4124166003  MEMB      196             0.0000000000
     24344       196  DOPE      H15S           43.3637661025      -30.7936453845       -1.0632632225  MEMB      196             0.0000000000
     24345       196  DOPE      C216           41.8962990290      -29.1721504460       -0.5739084321  MEMB      196             0.0000000000
     24346       196  DOPE      H16R           41.5950935314      -28.7567152675       -1.5593061994  MEMB      196             0.0000000000
     24347       196  DOPE      H16S           42.0665373848      -28.2823557885        0.0692131508  MEMB      196             0.0000000000
     24348       196  DOPE      C217           40.8974210862      -30.1639635295        0.0442170520  MEMB      196             0.0000000000
     24349       196  DOPE      H17R           41.1647125495      -30.4432757676        1.0857839140  MEMB      196             0.0000000000
     24350       196  DOPE      H17S           40.8829141105      -31.1775865087       -0.4104023765  MEMB      196             0.0000000000
     24351       196  DOPE      C218           39.4120650091      -29.6286211117       -0.0344050217  MEMB      196             0.0000000000
     24352       196  DOPE      H18R           38.6864105852      -30.3829587824        0.3380479369  MEMB      196             0.0000000000
     24353       196  DOPE      H18S           39.2667642309      -29.3562607233       -1.1016577327  MEMB      196             0.0000000000
     24354       196  DOPE      H18T           39.2625413900      -28.6588629494        0.4866822831  MEMB      196             0.0000000000
     24355       196  DOPE      C33            38.2868741552      -28.4893112196      -13.8480536118  MEMB      196             0.0000000000
     24356       196  DOPE      H3X            38.7614679279      -28.1132406523      -14.7795325417  MEMB      196             0.0000000000
     24357       196  DOPE      H3Y            37.6323218658      -29.3487723834      -14.1072999481  MEMB      196             0.0000000000
     24358       196  DOPE      C34            39.3904839474      -28.8980829539      -12.8617016460  MEMB      196             0.0000000000
     24359       196  DOPE      H4X            39.9186797906      -29.7347327245      -13.3670206771  MEMB      196             0.0000000000
     24360       196  DOPE      H4Y            40.0410627225      -28.0103330976      -12.7101482648  MEMB      196             0.0000000000
     24361       196  DOPE      C35            39.2197157551      -29.3894832959      -11.3938308751  MEMB      196             0.0000000000
     24362       196  DOPE      H5X            39.1305901883      -28.5372308496      -10.6866933939  MEMB      196             0.0000000000
     24363       196  DOPE      H5Y            40.0451009319      -30.0365857392      -11.0273348547  MEMB      196             0.0000000000
     24364       196  DOPE      C36            37.8952196283      -30.1627367154      -11.0850983953  MEMB      196             0.0000000000
     24365       196  DOPE      H6X            37.9555853022      -31.2211915050      -11.4172893168  MEMB      196             0.0000000000
     24366       196  DOPE      H6Y            37.1500448781      -29.6989224872      -11.7662087403  MEMB      196             0.0000000000
     24367       196  DOPE      C37            37.5443845708      -30.0657795233       -9.6222956393  MEMB      196             0.0000000000
     24368       196  DOPE      H7X            36.8423555203      -30.8951659871       -9.3907911942  MEMB      196             0.0000000000
     24369       196  DOPE      H7Y            38.4491150735      -30.1935637209       -8.9902713676  MEMB      196             0.0000000000
     24370       196  DOPE      C38            36.6946571484      -28.8280319977       -9.1848998116  MEMB      196             0.0000000000
     24371       196  DOPE      H8X            35.9752000494      -28.4788198579       -9.9561023408  MEMB      196             0.0000000000
     24372       196  DOPE      H8Y            37.4795110314      -28.0435846223       -9.2393756606  MEMB      196             0.0000000000
     24373       196  DOPE      C39            35.9211459825      -28.9283040677       -7.8953786837  MEMB      196             0.0000000000
     24374       196  DOPE      H9X            35.7476324378      -29.9645210271       -7.5695763076  MEMB      196             0.0000000000
     24375       196  DOPE      C310           35.5096297896      -27.9110838417       -7.1376982394  MEMB      196             0.0000000000
     24376       196  DOPE      H10X           34.9884077039      -28.0318185641       -6.1765790976  MEMB      196             0.0000000000
     24377       196  DOPE      C311           35.7079215386      -26.4597758956       -7.4726968195  MEMB      196             0.0000000000
     24378       196  DOPE      H11X           36.1743236180      -26.3307836412       -8.4727720717  MEMB      196             0.0000000000
     24379       196  DOPE      H11Y           34.8049938828      -25.8285156007       -7.6160621327  MEMB      196             0.0000000000
     24380       196  DOPE      C312           36.6489964474      -25.7608506750       -6.4627199493  MEMB      196             0.0000000000
     24381       196  DOPE      H12X           36.8429441302      -24.7262063047       -6.8179896974  MEMB      196             0.0000000000
     24382       196  DOPE      H12Y           37.6184172693      -26.3009890149       -6.4098574697  MEMB      196             0.0000000000
     24383       196  DOPE      C313           36.2609878012      -25.7345918319       -4.9322233648  MEMB      196             0.0000000000
     24384       196  DOPE      H13X           35.2280166368      -25.3330387508       -4.8544605450  MEMB      196             0.0000000000
     24385       196  DOPE      H13Y           36.2823836901      -26.7650050836       -4.5173600428  MEMB      196             0.0000000000
     24386       196  DOPE      C314           37.1621940507      -24.7408155924       -4.1539954084  MEMB      196             0.0000000000
     24387       196  DOPE      H14X           36.5066898709      -24.5178490356       -3.2851330968  MEMB      196             0.0000000000
     24388       196  DOPE      H14Y           37.2085315727      -23.8562588706       -4.8246169895  MEMB      196             0.0000000000
     24389       196  DOPE      C315           38.4961218011      -25.3453787308       -3.7535157173  MEMB      196             0.0000000000
     24390       196  DOPE      H15X           39.2475088235      -25.4131410497       -4.5690807265  MEMB      196             0.0000000000
     24391       196  DOPE      H15Y           38.2062749345      -26.3778093060       -3.4630037971  MEMB      196             0.0000000000
     24392       196  DOPE      C316           39.0369017213      -24.8343546485       -2.4762660681  MEMB      196             0.0000000000
     24393       196  DOPE      H16X           38.1842369383      -24.9449692261       -1.7726697092  MEMB      196             0.0000000000
     24394       196  DOPE      H16Y           39.2931782655      -23.7649429256       -2.6343852428  MEMB      196             0.0000000000
     24395       196  DOPE      C317           40.2522123884      -25.6302130957       -1.8975719640  MEMB      196             0.0000000000
     24396       196  DOPE      H17X           40.4257074068      -25.2129846615       -0.8826124004  MEMB      196             0.0000000000
     24397       196  DOPE      H17Y           39.9745559522      -26.7050310493       -1.9422307219  MEMB      196             0.0000000000
     24398       196  DOPE      C318           41.5995212620      -25.4808309564       -2.6827661209  MEMB      196             0.0000000000
     24399       196  DOPE      H18X           41.8818454619      -24.4196283968       -2.8514758035  MEMB      196             0.0000000000
     24400       196  DOPE      H18Y           42.4430020317      -25.8668026938       -2.0713031706  MEMB      196             0.0000000000
     24401       196  DOPE      H18Z           41.4184555142      -25.9655529156       -3.6659149408  MEMB      196             0.0000000000
     24402       197  23SM      N             -33.2426941997       33.2077654602      -27.4425662005  MEMB      197             0.0000000000
     24403       197  23SM      C15           -33.7065648953       31.7854394136      -27.1676276124  MEMB      197             0.0000000000
     24404       197  23SM      H15A          -33.2775782451       31.4201271519      -26.2462604581  MEMB      197             0.0000000000
     24405       197  23SM      H15B          -33.4372451513       31.1046788482      -27.9616249533  MEMB      197             0.0000000000
     24406       197  23SM      H15C          -34.7828484041       31.7162112517      -27.1108718774  MEMB      197             0.0000000000
     24407       197  23SM      C14           -31.7625469115       33.3117105488      -27.7645075153  MEMB      197             0.0000000000
     24408       197  23SM      H14A          -31.3959007730       34.3152738834      -27.9220865425  MEMB      197             0.0000000000
     24409       197  23SM      H14B          -31.4888307710       32.8137975068      -28.6829637873  MEMB      197             0.0000000000
     24410       197  23SM      H14C          -31.2743373611       32.8613613535      -26.9128989023  MEMB      197             0.0000000000
     24411       197  23SM      C13           -34.0403995667       33.7703799806      -28.6213358305  MEMB      197             0.0000000000
     24412       197  23SM      H13A          -33.7838682059       34.8070054527      -28.7825786967  MEMB      197             0.0000000000
     24413       197  23SM      H13B          -35.0482050979       33.7553926782      -28.2333881110  MEMB      197             0.0000000000
     24414       197  23SM      H13C          -34.0877499356       33.1959714750      -29.5346884985  MEMB      197             0.0000000000
     24415       197  23SM      C12           -33.5932614694       34.0999607102      -26.2455454900  MEMB      197             0.0000000000
     24416       197  23SM      H12A          -34.6328972306       34.0439686271      -25.9584527720  MEMB      197             0.0000000000
     24417       197  23SM      H12B          -33.4738412967       35.1037209044      -26.6258141986  MEMB      197             0.0000000000
     24418       197  23SM      C11           -32.7777999690       33.9186770814      -24.9364016060  MEMB      197             0.0000000000
     24419       197  23SM      H11A          -32.8648892787       32.8603460240      -24.6097946959  MEMB      197             0.0000000000
     24420       197  23SM      H11B          -33.3141331838       34.4934381917      -24.1513428354  MEMB      197             0.0000000000
     24421       197  23SM      P             -31.0535908551       35.8979925080      -24.7987909003  MEMB      197             0.0000000000
     24422       197  23SM      O13           -29.6332566306       36.1125152151      -25.1208006897  MEMB      197             0.0000000000
     24423       197  23SM      O14           -32.0486554703       36.6361924819      -25.5563507348  MEMB      197             0.0000000000
     24424       197  23SM      O11           -31.2906211915       36.0638436095      -23.2380875874  MEMB      197             0.0000000000
     24425       197  23SM      O12           -31.4039937415       34.3118440859      -25.1079858336  MEMB      197             0.0000000000
     24426       197  23SM      C1S           -30.4009141846       35.3782536824      -22.3558516748  MEMB      197             0.0000000000
     24427       197  23SM      H1S           -29.4515993951       35.9469917690      -22.2575693640  MEMB      197             0.0000000000
     24428       197  23SM      H1T           -30.1661319739       34.3202389335      -22.6003986614  MEMB      197             0.0000000000
     24429       197  23SM      NF            -32.4795683421       34.8019672865      -20.9680705460  MEMB      197             0.0000000000
     24430       197  23SM      HNF           -33.2427102886       35.4096828497      -20.7623884924  MEMB      197             0.0000000000
     24431       197  23SM      C2S           -31.1465558740       35.4031395781      -20.9240796748  MEMB      197             0.0000000000
     24432       197  23SM      H2S           -30.5093271188       34.7007131945      -20.3454108763  MEMB      197             0.0000000000
     24433       197  23SM      C3S           -31.2590434723       36.8070750071      -20.3484344300  MEMB      197             0.0000000000
     24434       197  23SM      H3S           -31.9622421886       37.4493644444      -20.9205334281  MEMB      197             0.0000000000
     24435       197  23SM      O3            -30.0729011109       37.5925662662      -20.3721818755  MEMB      197             0.0000000000
     24436       197  23SM      HO3           -29.5032002633       37.0464030734      -20.9187594904  MEMB      197             0.0000000000
     24437       197  23SM      C4S           -31.7360812271       36.7472732651      -18.9147007553  MEMB      197             0.0000000000
     24438       197  23SM      H4S           -32.8050459065       36.9858328126      -18.8127017658  MEMB      197             0.0000000000
     24439       197  23SM      C5S           -30.9831644897       36.5244491182      -17.8262069122  MEMB      197             0.0000000000
     24440       197  23SM      H5S           -29.9160158515       36.3084775109      -17.9828907994  MEMB      197             0.0000000000
     24441       197  23SM      C6S           -31.4333396469       36.5559120765      -16.3669026481  MEMB      197             0.0000000000
     24442       197  23SM      H6S           -30.6559947240       37.0051305704      -15.7124883859  MEMB      197             0.0000000000
     24443       197  23SM      H6T           -31.5241979183       35.4741847296      -16.1304038564  MEMB      197             0.0000000000
     24444       197  23SM      C7S           -32.8303830248       37.1359918987      -15.9732730833  MEMB      197             0.0000000000
     24445       197  23SM      H7S           -33.5405405881       36.5580661179      -16.6025578962  MEMB      197             0.0000000000
     24446       197  23SM      H7T           -33.0358313562       38.2022768921      -16.2081105016  MEMB      197             0.0000000000
     24447       197  23SM      C8S           -33.1435899887       37.0343421991      -14.5019621022  MEMB      197             0.0000000000
     24448       197  23SM      H8S           -34.2012925053       37.3374253618      -14.3479256914  MEMB      197             0.0000000000
     24449       197  23SM      H8T           -32.5163288629       37.8310602904      -14.0479742828  MEMB      197             0.0000000000
     24450       197  23SM      C9S           -33.1020580222       35.6368017278      -13.7443422042  MEMB      197             0.0000000000
     24451       197  23SM      H9S           -32.1230261839       35.1130336607      -13.7828743715  MEMB      197             0.0000000000
     24452       197  23SM      H9T           -33.9128191389       34.9838685729      -14.1324984344  MEMB      197             0.0000000000
     24453       197  23SM      C10S          -33.3877846301       35.8654505414      -12.2217727636  MEMB      197             0.0000000000
     24454       197  23SM      H10S          -33.3119515201       34.8597520627      -11.7557891108  MEMB      197             0.0000000000
     24455       197  23SM      H10T          -34.4465018503       36.2011450192      -12.1944231081  MEMB      197             0.0000000000
     24456       197  23SM      C11S          -32.5343760068       36.9989034017      -11.5014696150  MEMB      197             0.0000000000
     24457       197  23SM      H11S          -32.7154972627       38.0344048907      -11.8609870879  MEMB      197             0.0000000000
     24458       197  23SM      H11T          -31.4536944645       36.7411973522      -11.5074694563  MEMB      197             0.0000000000
     24459       197  23SM      C12S          -32.8794518511       37.1024142298       -9.9959193984  MEMB      197             0.0000000000
     24460       197  23SM      H12S          -33.1659377493       36.0910011880       -9.6363500071  MEMB      197             0.0000000000
     24461       197  23SM      H12T          -33.7980046887       37.7102077802       -9.8504250596  MEMB      197             0.0000000000
     24462       197  23SM      C13S          -31.7013617461       37.4256123600       -9.0937417843  MEMB      197             0.0000000000
     24463       197  23SM      H13S          -31.1758929031       38.3438536120       -9.4329115237  MEMB      197             0.0000000000
     24464       197  23SM      H13T          -30.9284324885       36.6278036226       -9.1138002352  MEMB      197             0.0000000000
     24465       197  23SM      C14S          -31.9055988039       37.5283703971       -7.5279173278  MEMB      197             0.0000000000
     24466       197  23SM      H14S          -32.1491979130       36.4863114166       -7.2294315616  MEMB      197             0.0000000000
     24467       197  23SM      H14T          -32.7352014637       38.1939123733       -7.2067728021  MEMB      197             0.0000000000
     24468       197  23SM      C15S          -30.7234273489       37.9269821497       -6.6590779473  MEMB      197             0.0000000000
     24469       197  23SM      H15S          -30.3115529744       38.8980892269       -7.0078354236  MEMB      197             0.0000000000
     24470       197  23SM      H15T          -29.8916946019       37.1918702567       -6.7054713484  MEMB      197             0.0000000000
     24471       197  23SM      C16S          -31.2651029307       38.0405065448       -5.1779771625  MEMB      197             0.0000000000
     24472       197  23SM      H16S          -31.5362352658       37.0593825425       -4.7327749851  MEMB      197             0.0000000000
     24473       197  23SM      H16T          -32.2537383483       38.5326070866       -5.2994594176  MEMB      197             0.0000000000
     24474       197  23SM      C17S          -30.2475840241       38.8179721026       -4.2909445221  MEMB      197             0.0000000000
     24475       197  23SM      H17S          -30.2108461424       39.9200921646       -4.4262330090  MEMB      197             0.0000000000
     24476       197  23SM      H17T          -29.2836664812       38.2899747000       -4.4534360722  MEMB      197             0.0000000000
     24477       197  23SM      C18S          -30.5097393961       38.5642769820       -2.7801354307  MEMB      197             0.0000000000
     24478       197  23SM      H18S          -29.5583311621       38.5516931941       -2.2065623999  MEMB      197             0.0000000000
     24479       197  23SM      H18T          -30.8955485648       37.5224580160       -2.7893604710  MEMB      197             0.0000000000
     24480       197  23SM      H18U          -31.2026277922       39.3156446880       -2.3446199586  MEMB      197             0.0000000000
     24481       197  23SM      C1F           -32.7933280794       33.5621067573      -21.3494142543  MEMB      197             0.0000000000
     24482       197  23SM      OF            -31.9217070896       32.6774278120      -21.5946929189  MEMB      197             0.0000000000
     24483       197  23SM      C2F           -34.1988873169       33.4120123716      -21.6253700923  MEMB      197             0.0000000000
     24484       197  23SM      H2F           -34.4171536505       32.3304313488      -21.7552298564  MEMB      197             0.0000000000
     24485       197  23SM      H2G           -34.3716244282       34.0027213911      -22.5503274692  MEMB      197             0.0000000000
     24486       197  23SM      C3F           -35.0374369645       33.9293664237      -20.4482576124  MEMB      197             0.0000000000
     24487       197  23SM      H3F           -36.1224035941       33.7388710361      -20.5927562644  MEMB      197             0.0000000000
     24488       197  23SM      H3G           -35.0231003879       35.0380007127      -20.3772257514  MEMB      197             0.0000000000
     24489       197  23SM      C4F           -34.7501929866       33.4014388825      -18.9923360621  MEMB      197             0.0000000000
     24490       197  23SM      H4F           -33.6858608984       33.3166354144      -18.6852097131  MEMB      197             0.0000000000
     24491       197  23SM      H4G           -35.1490721909       32.3650155675      -19.0246332826  MEMB      197             0.0000000000
     24492       197  23SM      C5F           -35.5524639726       34.2107252463      -17.9627336819  MEMB      197             0.0000000000
     24493       197  23SM      H5F           -36.4722138659       34.6265399122      -18.4269304892  MEMB      197             0.0000000000
     24494       197  23SM      H5G           -35.0122620021       35.1572625853      -17.7469324636  MEMB      197             0.0000000000
     24495       197  23SM      C6F           -35.8966265068       33.4208879499      -16.7191866098  MEMB      197             0.0000000000
     24496       197  23SM      H6F           -34.9357797039       33.2708366779      -16.1819907262  MEMB      197             0.0000000000
     24497       197  23SM      H6G           -36.3117874682       32.4332009080      -17.0131875112  MEMB      197             0.0000000000
     24498       197  23SM      C7F           -36.8471282625       34.0673474885      -15.7520029810  MEMB      197             0.0000000000
     24499       197  23SM      H7F           -37.7529678739       34.1186840189      -16.3932051034  MEMB      197             0.0000000000
     24500       197  23SM      H7G           -36.5625799841       35.1283338338      -15.5856866528  MEMB      197             0.0000000000
     24501       197  23SM      C8F           -36.9679727152       33.1858649632      -14.5410572674  MEMB      197             0.0000000000
     24502       197  23SM      H8F           -35.9530365291       32.9482449192      -14.1566579642  MEMB      197             0.0000000000
     24503       197  23SM      H8G           -37.5253550860       32.2602035651      -14.7995087524  MEMB      197             0.0000000000
     24504       197  23SM      C9F           -37.6034699679       33.9433227002      -13.2998085248  MEMB      197             0.0000000000
     24505       197  23SM      H9F           -38.4902651275       34.4854283340      -13.6922832889  MEMB      197             0.0000000000
     24506       197  23SM      H9G           -36.8921575532       34.7228952016      -12.9525010653  MEMB      197             0.0000000000
     24507       197  23SM      C10F          -38.1467700122       33.0892210377      -12.1173075833  MEMB      197             0.0000000000
     24508       197  23SM      H10F          -38.8747265909       32.3915595404      -12.5838566234  MEMB      197             0.0000000000
     24509       197  23SM      H10G          -38.7899125532       33.6868862556      -11.4365102435  MEMB      197             0.0000000000
     24510       197  23SM      C11F          -37.1653785187       32.2870980653      -11.3370161525  MEMB      197             0.0000000000
     24511       197  23SM      H11F          -36.8081235035       31.4370488888      -11.9567794663  MEMB      197             0.0000000000
     24512       197  23SM      H11G          -37.6256680708       31.7702736232      -10.4679091189  MEMB      197             0.0000000000
     24513       197  23SM      C12F          -36.0723215883       33.1812351925      -10.7908668129  MEMB      197             0.0000000000
     24514       197  23SM      H12F          -36.4950724837       33.9950218787      -10.1636875200  MEMB      197             0.0000000000
     24515       197  23SM      H12G          -35.5284262173       33.6456654005      -11.6410452254  MEMB      197             0.0000000000
     24516       197  23SM      C13F          -34.8933205768       32.3739693079      -10.0121329540  MEMB      197             0.0000000000
     24517       197  23SM      H13F          -34.0860060812       33.0678434085       -9.6941665730  MEMB      197             0.0000000000
     24518       197  23SM      H13G          -34.4433650593       31.6819601199      -10.7557622912  MEMB      197             0.0000000000
     24519       197  23SM      C14F          -35.2825876619       31.8103805749       -8.6711378965  MEMB      197             0.0000000000
     24520       197  23SM      H14F          -36.1911065386       31.1800414457       -8.7787787672  MEMB      197             0.0000000000
     24521       197  23SM      H14G          -35.5963382601       32.7524868012       -8.1728224494  MEMB      197             0.0000000000
     24522       197  23SM      C15F          -34.1470460020       30.9551262307       -7.9722939781  MEMB      197             0.0000000000
     24523       197  23SM      H15F          -33.7038264319       30.1948951835       -8.6504726380  MEMB      197             0.0000000000
     24524       197  23SM      H15G          -34.6449435940       30.4789773744       -7.1006871915  MEMB      197             0.0000000000
     24525       197  23SM      C16F          -32.8989358933       31.7265184878       -7.4399169785  MEMB      197             0.0000000000
     24526       197  23SM      H16F          -32.2219590624       32.0031062234       -8.2762904675  MEMB      197             0.0000000000
     24527       197  23SM      H16G          -32.2454684962       31.1755821294       -6.7301490310  MEMB      197             0.0000000000
     24528       197  23SM      C17F          -33.1500131026       33.0348870361       -6.6719719525  MEMB      197             0.0000000000
     24529       197  23SM      H17F          -33.9450354529       33.6716718660       -7.1155556209  MEMB      197             0.0000000000
     24530       197  23SM      H17G          -32.2052000979       33.6164743174       -6.6136142645  MEMB      197             0.0000000000
     24531       197  23SM      C18F          -33.5646621505       32.9415986010       -5.1827813287  MEMB      197             0.0000000000
     24532       197  23SM      H18F          -32.6902550264       32.5134739483       -4.6475779110  MEMB      197             0.0000000000
     24533       197  23SM      H18G          -34.4056660162       32.2256242968       -5.0627237209  MEMB      197             0.0000000000
     24534       197  23SM      C19F          -33.9936235974       34.3239783764       -4.7155117686  MEMB      197             0.0000000000
     24535       197  23SM      H19F          -34.8780317330       34.6986689290       -5.2738577040  MEMB      197             0.0000000000
     24536       197  23SM      H19G          -33.1965516337       35.0402864524       -5.0085983850  MEMB      197             0.0000000000
     24537       197  23SM      C20F          -34.2911622181       34.3878608409       -3.2140999335  MEMB      197             0.0000000000
     24538       197  23SM      H20F          -33.5073329678       33.8280925703       -2.6603928311  MEMB      197             0.0000000000
     24539       197  23SM      H20G          -35.2039743010       33.7705016649       -3.0728104590  MEMB      197             0.0000000000
     24540       197  23SM      C21F          -34.5421093656       35.8508237758       -2.8147673366  MEMB      197             0.0000000000
     24541       197  23SM      H21F          -35.3652378544       36.2075644522       -3.4701430497  MEMB      197             0.0000000000
     24542       197  23SM      H21G          -33.6548470753       36.4795117168       -3.0424472820  MEMB      197             0.0000000000
     24543       197  23SM      C22F          -34.9853977498       36.1613780366       -1.3443203112  MEMB      197             0.0000000000
     24544       197  23SM      H22F          -35.6081542219       35.3725687114       -0.8707428483  MEMB      197             0.0000000000
     24545       197  23SM      H22G          -35.6244364347       37.0639378336       -1.4507929320  MEMB      197             0.0000000000
     24546       197  23SM      C23F          -33.7588652835       36.4974736575       -0.5414759521  MEMB      197             0.0000000000
     24547       197  23SM      H23F          -34.0179720550       37.0429030075        0.3910968734  MEMB      197             0.0000000000
     24548       197  23SM      H23G          -33.0370374638       37.1590391250       -1.0664679946  MEMB      197             0.0000000000
     24549       197  23SM      H23H          -33.3215412839       35.5160902815       -0.2587116783  MEMB      197             0.0000000000
     24550       198  CHL1      C3             33.3983800370      -34.5839226191      -17.3090850000  MEMB      198             0.0000000000
     24551       198  CHL1      H3             34.4803177628      -34.5884563344      -17.0566750000  MEMB      198             0.0000000000
     24552       198  CHL1      O3             33.1342665630      -34.6875073809      -18.6909150000  MEMB      198             0.0000000000
     24553       198  CHL1      H3'            33.7628065947      -35.2933950759      -19.0902250000  MEMB      198             0.0000000000
     24554       198  CHL1      C4             32.7574829587      -35.7578953599      -16.6046450000  MEMB      198             0.0000000000
     24555       198  CHL1      H4A            31.7098136865      -35.7857430959      -16.9733450000  MEMB      198             0.0000000000
     24556       198  CHL1      H4B            33.1899396319      -36.7408965989      -16.8892650000  MEMB      198             0.0000000000
     24557       198  CHL1      C5             32.6626831315      -35.7217929811      -15.0880750000  MEMB      198             0.0000000000
     24558       198  CHL1      C6             33.1959128717      -36.7105567669      -14.4122850000  MEMB      198             0.0000000000
     24559       198  CHL1      H6             33.6492602609      -37.5148725457      -15.0102550000  MEMB      198             0.0000000000
     24560       198  CHL1      C7             33.0931069793      -36.9407846055      -12.9111750000  MEMB      198             0.0000000000
     24561       198  CHL1      H7A            32.6801186423      -37.9336097209      -12.6317850000  MEMB      198             0.0000000000
     24562       198  CHL1      H7B            34.1628797333      -37.0083682086      -12.6190850000  MEMB      198             0.0000000000
     24563       198  CHL1      C8             32.3234463861      -35.8123776009      -12.2106250000  MEMB      198             0.0000000000
     24564       198  CHL1      H8             31.2277574024      -35.9412484819      -12.3416550000  MEMB      198             0.0000000000
     24565       198  CHL1      C14            32.6705668343      -35.8194406888      -10.7438450000  MEMB      198             0.0000000000
     24566       198  CHL1      H14            33.7256643252      -35.4771590703      -10.6812350000  MEMB      198             0.0000000000
     24567       198  CHL1      C15            32.5909415238      -37.1621868065       -9.8924550000  MEMB      198             0.0000000000
     24568       198  CHL1      H15A           31.6086294257      -37.6057801795      -10.1619050000  MEMB      198             0.0000000000
     24569       198  CHL1      H15B           33.4882957900      -37.7260450138      -10.2258450000  MEMB      198             0.0000000000
     24570       198  CHL1      C16            32.5491965031      -36.6646556756       -8.4422850000  MEMB      198             0.0000000000
     24571       198  CHL1      H16A           31.7032515236      -37.1710741892       -7.9301850000  MEMB      198             0.0000000000
     24572       198  CHL1      H16B           33.4880957071      -36.8554231512       -7.8798050000  MEMB      198             0.0000000000
     24573       198  CHL1      C17            32.4427635214      -35.0879272798       -8.5444050000  MEMB      198             0.0000000000
     24574       198  CHL1      H17            33.5144175980      -34.7949965627       -8.5360750000  MEMB      198             0.0000000000
     24575       198  CHL1      C13            31.9284261992      -34.6890790990       -9.9826450000  MEMB      198             0.0000000000
     24576       198  CHL1      C18            30.4229162565      -35.0012120069      -10.1166350000  MEMB      198             0.0000000000
     24577       198  CHL1      H18A           29.9026747792      -34.8462648755      -11.0859850000  MEMB      198             0.0000000000
     24578       198  CHL1      H18B           30.0857967735      -36.0445672229       -9.9375650000  MEMB      198             0.0000000000
     24579       198  CHL1      H18C           29.8498071642      -34.3320065484       -9.4398450000  MEMB      198             0.0000000000
     24580       198  CHL1      C12            32.2520640067      -33.2952874737      -10.5342950000  MEMB      198             0.0000000000
     24581       198  CHL1      H12A           31.4857937874      -32.6461464097      -10.0591750000  MEMB      198             0.0000000000
     24582       198  CHL1      H12B           33.2701801206      -33.0102762931      -10.1929250000  MEMB      198             0.0000000000
     24583       198  CHL1      C11            32.0456860340      -33.2443542802      -12.0981350000  MEMB      198             0.0000000000
     24584       198  CHL1      H11A           30.9359078448      -33.2323623145      -12.1487050000  MEMB      198             0.0000000000
     24585       198  CHL1      H11B           32.4294025519      -32.2875060352      -12.5123150000  MEMB      198             0.0000000000
     24586       198  CHL1      C9             32.6014666408      -34.4444254007      -12.8738950000  MEMB      198             0.0000000000
     24587       198  CHL1      H9             33.6887219362      -34.2564047083      -12.7441150000  MEMB      198             0.0000000000
     24588       198  CHL1      C10            32.2249768980      -34.3637555690      -14.4141450000  MEMB      198             0.0000000000
     24589       198  CHL1      C19            30.7059091087      -34.1831052844      -14.4874050000  MEMB      198             0.0000000000
     24590       198  CHL1      H19A           30.2758692362      -34.8929699433      -13.7488450000  MEMB      198             0.0000000000
     24591       198  CHL1      H19B           30.3300552638      -33.1681277303      -14.2366750000  MEMB      198             0.0000000000
     24592       198  CHL1      H19C           30.3324326208      -34.4684147533      -15.4940950000  MEMB      198             0.0000000000
     24593       198  CHL1      C1             33.0189266638      -33.2031099296      -15.1044150000  MEMB      198             0.0000000000
     24594       198  CHL1      H1A            32.7303852992      -32.2124210066      -14.6925850000  MEMB      198             0.0000000000
     24595       198  CHL1      H1B            34.0893426835      -33.3321919214      -14.8363250000  MEMB      198             0.0000000000
     24596       198  CHL1      C2             32.9064748515      -33.2988015488      -16.6535050000  MEMB      198             0.0000000000
     24597       198  CHL1      H2A            33.5617785193      -32.5191617404      -17.0974150000  MEMB      198             0.0000000000
     24598       198  CHL1      H2B            31.8420672582      -33.1072348660      -16.9077650000  MEMB      198             0.0000000000
     24599       198  CHL1      C20            31.8768244102      -34.4085124839       -7.2122450000  MEMB      198             0.0000000000
     24600       198  CHL1      H20            32.5905644809      -34.7857660544       -6.4489850000  MEMB      198             0.0000000000
     24601       198  CHL1      C21            30.4799778002      -34.7996041729       -6.7464950000  MEMB      198             0.0000000000
     24602       198  CHL1      H21A           30.4489886594      -35.9100563348       -6.7306250000  MEMB      198             0.0000000000
     24603       198  CHL1      H21B           29.6131393199      -34.4394024924       -7.3407650000  MEMB      198             0.0000000000
     24604       198  CHL1      H21C           30.3962262389      -34.5208365131       -5.6743050000  MEMB      198             0.0000000000
     24605       198  CHL1      C22            32.0065205296      -32.9068790874       -7.2357350000  MEMB      198             0.0000000000
     24606       198  CHL1      H22A           32.8622472770      -32.6453170400       -7.8942450000  MEMB      198             0.0000000000
     24607       198  CHL1      H22B           31.0831881718      -32.5307772337       -7.7259750000  MEMB      198             0.0000000000
     24608       198  CHL1      C23            32.2128645233      -32.1995065570       -5.8021950000  MEMB      198             0.0000000000
     24609       198  CHL1      H23A           33.2301031582      -32.3625087869       -5.3862850000  MEMB      198             0.0000000000
     24610       198  CHL1      H23B           32.1289603278      -31.1190061675       -6.0466850000  MEMB      198             0.0000000000
     24611       198  CHL1      C24            31.2091535447      -32.4050883666       -4.6391950000  MEMB      198             0.0000000000
     24612       198  CHL1      H24A           30.1885164916      -32.2921300899       -5.0632950000  MEMB      198             0.0000000000
     24613       198  CHL1      H24B           31.3065656347      -33.4008812169       -4.1562650000  MEMB      198             0.0000000000
     24614       198  CHL1      C25            31.3830846990      -31.4519216055       -3.4546550000  MEMB      198             0.0000000000
     24615       198  CHL1      H25            31.3762036102      -30.4168502775       -3.8582750000  MEMB      198             0.0000000000
     24616       198  CHL1      C26            30.1310765850      -31.6473748868       -2.5879050000  MEMB      198             0.0000000000
     24617       198  CHL1      H26A           29.8873482415      -32.7169273467       -2.4119350000  MEMB      198             0.0000000000
     24618       198  CHL1      H26B           30.2717745446      -31.1114007047       -1.6249650000  MEMB      198             0.0000000000
     24619       198  CHL1      H26C           29.3403106304      -31.2259732281       -3.2447450000  MEMB      198             0.0000000000
     24620       198  CHL1      C27            32.6002244934      -31.7448657968       -2.5186650000  MEMB      198             0.0000000000
     24621       198  CHL1      H27A           33.4458988489      -31.4082443967       -3.1557150000  MEMB      198             0.0000000000
     24622       198  CHL1      H27B           32.5906391901      -31.1539188258       -1.5779050000  MEMB      198             0.0000000000
     24623       198  CHL1      H27C           32.7101035486      -32.8229902095       -2.2739050000  MEMB      198             0.0000000000
     24624       199  23SM      N             -35.5276808041      -33.6394980578      -27.6481623049  MEMB      199             0.0000000000
     24625       199  23SM      C15           -34.4191641707      -34.3170717426      -28.4703468192  MEMB      199             0.0000000000
     24626       199  23SM      H15A          -33.6485627217      -33.6287748091      -28.7847042908  MEMB      199             0.0000000000
     24627       199  23SM      H15B          -34.7387754596      -34.7465981009      -29.4082996763  MEMB      199             0.0000000000
     24628       199  23SM      H15C          -34.0024979912      -35.0950423240      -27.8478108963  MEMB      199             0.0000000000
     24629       199  23SM      C14           -35.7975091106      -32.3033138779      -28.2677345197  MEMB      199             0.0000000000
     24630       199  23SM      H14A          -34.9070238481      -31.6945400794      -28.3209367774  MEMB      199             0.0000000000
     24631       199  23SM      H14B          -36.6009223863      -31.8457717409      -27.7095389683  MEMB      199             0.0000000000
     24632       199  23SM      H14C          -36.0030556668      -32.4385858646      -29.3193296605  MEMB      199             0.0000000000
     24633       199  23SM      C13           -36.8579609542      -34.3406121800      -27.6424380371  MEMB      199             0.0000000000
     24634       199  23SM      H13A          -36.7198282823      -35.2994806635      -27.1650591857  MEMB      199             0.0000000000
     24635       199  23SM      H13B          -37.2272376184      -34.3566092649      -28.6572182770  MEMB      199             0.0000000000
     24636       199  23SM      H13C          -37.4973316535      -33.7404005416      -27.0120801171  MEMB      199             0.0000000000
     24637       199  23SM      C12           -35.0860859425      -33.5792039037      -26.2608065600  MEMB      199             0.0000000000
     24638       199  23SM      H12A          -35.9284557354      -33.3502080555      -25.6249024539  MEMB      199             0.0000000000
     24639       199  23SM      H12B          -34.4077803923      -32.7441679255      -26.1658520826  MEMB      199             0.0000000000
     24640       199  23SM      C11           -34.3753303670      -34.8219329679      -25.5830244386  MEMB      199             0.0000000000
     24641       199  23SM      H11A          -34.0130899783      -34.5725912265      -24.5627638518  MEMB      199             0.0000000000
     24642       199  23SM      H11B          -33.4430917381      -35.0157246957      -26.1554726885  MEMB      199             0.0000000000
     24643       199  23SM      P             -36.0678603464      -36.3591999938      -24.4641753313  MEMB      199             0.0000000000
     24644       199  23SM      O13           -37.2024324484      -35.4514938345      -24.3626538405  MEMB      199             0.0000000000
     24645       199  23SM      O14           -36.3279299563      -37.8105187816      -24.5113441381  MEMB      199             0.0000000000
     24646       199  23SM      O11           -35.3161496305      -36.2117618814      -23.0878557419  MEMB      199             0.0000000000
     24647       199  23SM      O12           -35.0910638832      -36.0595122516      -25.7014582286  MEMB      199             0.0000000000
     24648       199  23SM      C1S           -34.1628978928      -37.0295073199      -22.9237783837  MEMB      199             0.0000000000
     24649       199  23SM      H1S           -33.3368371856      -36.5227488468      -23.4670468858  MEMB      199             0.0000000000
     24650       199  23SM      H1T           -34.2294512769      -38.0443339245      -23.3710127664  MEMB      199             0.0000000000
     24651       199  23SM      NF            -34.8438389036      -37.8963541685      -20.7851103715  MEMB      199             0.0000000000
     24652       199  23SM      HNF           -35.1789789361      -37.3587478712      -20.0152598748  MEMB      199             0.0000000000
     24653       199  23SM      C2S           -33.7308077101      -37.2402917163      -21.4266237202  MEMB      199             0.0000000000
     24654       199  23SM      H2S           -32.8666324371      -37.9202434928      -21.5853300385  MEMB      199             0.0000000000
     24655       199  23SM      C3S           -33.3278176444      -35.9584574872      -20.6880043146  MEMB      199             0.0000000000
     24656       199  23SM      H3S           -34.1864662933      -35.2695622674      -20.8378934882  MEMB      199             0.0000000000
     24657       199  23SM      O3            -32.1840175850      -35.3456382006      -21.2876154250  MEMB      199             0.0000000000
     24658       199  23SM      HO3           -32.1755886534      -35.7086132460      -22.1763102336  MEMB      199             0.0000000000
     24659       199  23SM      C4S           -33.1127504256      -36.2822443798      -19.2260476358  MEMB      199             0.0000000000
     24660       199  23SM      H4S           -32.0992175701      -36.6458044999      -19.0011583305  MEMB      199             0.0000000000
     24661       199  23SM      C5S           -33.8386674290      -36.0302444913      -18.0962350292  MEMB      199             0.0000000000
     24662       199  23SM      H5S           -34.8625988313      -35.6469652209      -18.2173187799  MEMB      199             0.0000000000
     24663       199  23SM      C6S           -33.3812204970      -36.4753312322      -16.6506771084  MEMB      199             0.0000000000
     24664       199  23SM      H6S           -33.2406186663      -35.5870607143      -15.9983525070  MEMB      199             0.0000000000
     24665       199  23SM      H6T           -32.3761704793      -36.9486991454      -16.6615666456  MEMB      199             0.0000000000
     24666       199  23SM      C7S           -34.4136811180      -37.3341988257      -15.8539297020  MEMB      199             0.0000000000
     24667       199  23SM      H7S           -34.5739825869      -38.3486377318      -16.2776491058  MEMB      199             0.0000000000
     24668       199  23SM      H7T           -35.4175300074      -36.8595176501      -15.8180662606  MEMB      199             0.0000000000
     24669       199  23SM      C8S           -34.0507183390      -37.4755655839      -14.3661379253  MEMB      199             0.0000000000
     24670       199  23SM      H8S           -34.8020010756      -38.0019292556      -13.7393717570  MEMB      199             0.0000000000
     24671       199  23SM      H8T           -34.1502490954      -36.4488972462      -13.9533828415  MEMB      199             0.0000000000
     24672       199  23SM      C9S           -32.6107830336      -37.9284595890      -14.0579091817  MEMB      199             0.0000000000
     24673       199  23SM      H9S           -31.9322000480      -37.0504213693      -14.1117137258  MEMB      199             0.0000000000
     24674       199  23SM      H9T           -32.3091134916      -38.6278991910      -14.8666739758  MEMB      199             0.0000000000
     24675       199  23SM      C10S          -32.3769972496      -38.5532459548      -12.6333298646  MEMB      199             0.0000000000
     24676       199  23SM      H10S          -31.2661305762      -38.5688281516      -12.6260131226  MEMB      199             0.0000000000
     24677       199  23SM      H10T          -32.7024608939      -39.6140781703      -12.5782881612  MEMB      199             0.0000000000
     24678       199  23SM      C11S          -32.7082975617      -37.6918827889      -11.3898481535  MEMB      199             0.0000000000
     24679       199  23SM      H11S          -33.7916270611      -37.4644933604      -11.2949158611  MEMB      199             0.0000000000
     24680       199  23SM      H11T          -32.1523652626      -36.7334337533      -11.4713078644  MEMB      199             0.0000000000
     24681       199  23SM      C12S          -32.1335337255      -38.2478190212      -10.0956254320  MEMB      199             0.0000000000
     24682       199  23SM      H12S          -31.0233552068      -38.2581851276      -10.1370627985  MEMB      199             0.0000000000
     24683       199  23SM      H12T          -32.4016796629      -39.3185748253       -9.9695280769  MEMB      199             0.0000000000
     24684       199  23SM      C13S          -32.5149279069      -37.2858797669       -9.0064044612  MEMB      199             0.0000000000
     24685       199  23SM      H13S          -33.6175204872      -37.1566718876       -8.9626332118  MEMB      199             0.0000000000
     24686       199  23SM      H13T          -32.1909209099      -36.2785370197       -9.3449336151  MEMB      199             0.0000000000
     24687       199  23SM      C14S          -31.9630261022      -37.5906335034       -7.5997091689  MEMB      199             0.0000000000
     24688       199  23SM      H14S          -30.8779598409      -37.8275081174       -7.6287381843  MEMB      199             0.0000000000
     24689       199  23SM      H14T          -32.5654831266      -38.4791057122       -7.3133809239  MEMB      199             0.0000000000
     24690       199  23SM      C15S          -31.9765094102      -36.3993217596       -6.6042687380  MEMB      199             0.0000000000
     24691       199  23SM      H15S          -32.9813374479      -36.0340991573       -6.3021852029  MEMB      199             0.0000000000
     24692       199  23SM      H15T          -31.4255831409      -35.5609998817       -7.0817792978  MEMB      199             0.0000000000
     24693       199  23SM      C16S          -31.2634665079      -36.7710757857       -5.2921132650  MEMB      199             0.0000000000
     24694       199  23SM      H16S          -30.3274430160      -37.3476806544       -5.4524486258  MEMB      199             0.0000000000
     24695       199  23SM      H16T          -32.0010619914      -37.4778119931       -4.8553094526  MEMB      199             0.0000000000
     24696       199  23SM      C17S          -31.0685135287      -35.5512240389       -4.2590124748  MEMB      199             0.0000000000
     24697       199  23SM      H17S          -32.0732800150      -35.2028348363       -3.9374690458  MEMB      199             0.0000000000
     24698       199  23SM      H17T          -30.5428747140      -34.7212379814       -4.7778076666  MEMB      199             0.0000000000
     24699       199  23SM      C18S          -30.3526992568      -35.8416945249       -2.9328115711  MEMB      199             0.0000000000
     24700       199  23SM      H18S          -30.9295168721      -36.5748073685       -2.3293647051  MEMB      199             0.0000000000
     24701       199  23SM      H18T          -30.1874239528      -34.9185250391       -2.3371907478  MEMB      199             0.0000000000
     24702       199  23SM      H18U          -29.3579863661      -36.3107488592       -3.0904664242  MEMB      199             0.0000000000
     24703       199  23SM      C1F           -35.3958045168      -39.0641583884      -21.2129450492  MEMB      199             0.0000000000
     24704       199  23SM      OF            -34.9488209055      -39.7726167795      -22.0916889541  MEMB      199             0.0000000000
     24705       199  23SM      C2F           -36.6004758823      -39.6044402039      -20.5182901319  MEMB      199             0.0000000000
     24706       199  23SM      H2F           -36.7845789703      -39.1009331706      -19.5451981665  MEMB      199             0.0000000000
     24707       199  23SM      H2G           -36.5183580588      -40.7049806405      -20.3902732540  MEMB      199             0.0000000000
     24708       199  23SM      C3F           -37.8015769913      -39.2855532910      -21.4411495931  MEMB      199             0.0000000000
     24709       199  23SM      H3F           -38.6907415101      -39.5965496250      -20.8520922562  MEMB      199             0.0000000000
     24710       199  23SM      H3G           -37.7793446887      -39.8459623310      -22.4001953941  MEMB      199             0.0000000000
     24711       199  23SM      C4F           -38.1457953162      -37.8526173720      -21.6594540170  MEMB      199             0.0000000000
     24712       199  23SM      H4F           -38.9440625922      -37.7996965223      -22.4303558244  MEMB      199             0.0000000000
     24713       199  23SM      H4G           -37.1931744267      -37.3332771910      -21.8984521695  MEMB      199             0.0000000000
     24714       199  23SM      C5F           -38.6836723035      -37.2538856689      -20.3764022740  MEMB      199             0.0000000000
     24715       199  23SM      H5F           -37.8704236918      -37.4457927605      -19.6442007042  MEMB      199             0.0000000000
     24716       199  23SM      H5G           -39.5537668016      -37.8744609632      -20.0728514893  MEMB      199             0.0000000000
     24717       199  23SM      C6F           -38.8680524198      -35.7975068210      -20.2766370788  MEMB      199             0.0000000000
     24718       199  23SM      H6F           -39.1828156916      -35.3292634285      -21.2337122158  MEMB      199             0.0000000000
     24719       199  23SM      H6G           -37.9011769040      -35.2580884578      -20.1844400792  MEMB      199             0.0000000000
     24720       199  23SM      C7F           -39.7717232716      -35.2651080360      -19.1552129743  MEMB      199             0.0000000000
     24721       199  23SM      H7F           -40.8349795287      -35.5546240501      -19.2965914403  MEMB      199             0.0000000000
     24722       199  23SM      H7G           -39.6210853833      -34.1647692397      -19.1849406000  MEMB      199             0.0000000000
     24723       199  23SM      C8F           -39.3809554786      -36.0115112241      -17.8961093248  MEMB      199             0.0000000000
     24724       199  23SM      H8F           -38.2740010571      -35.9345223818      -17.8409207918  MEMB      199             0.0000000000
     24725       199  23SM      H8G           -39.6556188327      -37.0837413932      -17.9920435127  MEMB      199             0.0000000000
     24726       199  23SM      C9F           -39.9434241312      -35.3797497891      -16.5857192300  MEMB      199             0.0000000000
     24727       199  23SM      H9F           -39.9914748335      -36.1007444776      -15.7418126609  MEMB      199             0.0000000000
     24728       199  23SM      H9G           -40.9471347376      -34.9709423567      -16.8301838740  MEMB      199             0.0000000000
     24729       199  23SM      C10F          -39.2296394201      -33.9867048124      -16.2018249304  MEMB      199             0.0000000000
     24730       199  23SM      H10F          -39.8333985955      -33.4189888172      -15.4618970368  MEMB      199             0.0000000000
     24731       199  23SM      H10G          -39.2577090768      -33.4174581006      -17.1554976934  MEMB      199             0.0000000000
     24732       199  23SM      C11F          -37.8185614223      -34.2138018302      -15.6674472011  MEMB      199             0.0000000000
     24733       199  23SM      H11F          -37.1170695342      -34.2514634205      -16.5281514521  MEMB      199             0.0000000000
     24734       199  23SM      H11G          -37.7994376013      -35.0859630668      -14.9794868388  MEMB      199             0.0000000000
     24735       199  23SM      C12F          -37.3653759429      -33.0898121825      -14.6723408123  MEMB      199             0.0000000000
     24736       199  23SM      H12F          -38.2423630796      -32.7551691439      -14.0780099908  MEMB      199             0.0000000000
     24737       199  23SM      H12G          -37.0571288564      -32.2931136167      -15.3826754326  MEMB      199             0.0000000000
     24738       199  23SM      C13F          -36.2849582169      -33.5147355024      -13.7039763656  MEMB      199             0.0000000000
     24739       199  23SM      H13F          -35.3661036755      -33.7047176773      -14.2989000973  MEMB      199             0.0000000000
     24740       199  23SM      H13G          -36.5907856081      -34.5138688937      -13.3264536888  MEMB      199             0.0000000000
     24741       199  23SM      C14F          -35.9005902652      -32.5189538450      -12.6487536347  MEMB      199             0.0000000000
     24742       199  23SM      H14F          -36.7731318466      -32.2730351285      -12.0064791588  MEMB      199             0.0000000000
     24743       199  23SM      H14G          -35.5022990848      -31.5888397033      -13.1076355812  MEMB      199             0.0000000000
     24744       199  23SM      C15F          -35.0066226085      -33.0732687561      -11.5005589730  MEMB      199             0.0000000000
     24745       199  23SM      H15F          -34.6870369397      -32.3808421033      -10.6926405574  MEMB      199             0.0000000000
     24746       199  23SM      H15G          -34.0864717772      -33.5421079004      -11.9102336610  MEMB      199             0.0000000000
     24747       199  23SM      C16F          -35.6315697022      -34.2930786154      -10.7541323783  MEMB      199             0.0000000000
     24748       199  23SM      H16F          -35.6223719653      -35.1365973179      -11.4771214058  MEMB      199             0.0000000000
     24749       199  23SM      H16G          -36.7237191950      -34.1492826902      -10.6097252609  MEMB      199             0.0000000000
     24750       199  23SM      C17F          -34.9358638906      -34.6518975449       -9.4188811548  MEMB      199             0.0000000000
     24751       199  23SM      H17F          -33.8556402949      -34.3933500047       -9.3945657342  MEMB      199             0.0000000000
     24752       199  23SM      H17G          -35.0460050895      -35.7104190197       -9.0999410305  MEMB      199             0.0000000000
     24753       199  23SM      C18F          -35.7129960396      -33.8845235699       -8.2710136329  MEMB      199             0.0000000000
     24754       199  23SM      H18F          -36.8042696082      -34.0737558684       -8.3583823903  MEMB      199             0.0000000000
     24755       199  23SM      H18G          -35.5190016535      -32.7981126627       -8.3990671164  MEMB      199             0.0000000000
     24756       199  23SM      C19F          -35.2301600830      -34.1194976164       -6.8018834056  MEMB      199             0.0000000000
     24757       199  23SM      H19F          -34.1336819049      -33.9429040518       -6.7723685401  MEMB      199             0.0000000000
     24758       199  23SM      H19G          -35.3671822736      -35.1827436561       -6.5102445278  MEMB      199             0.0000000000
     24759       199  23SM      C20F          -36.0183695691      -33.3115255695       -5.7774977172  MEMB      199             0.0000000000
     24760       199  23SM      H20F          -37.0348693517      -33.1855376331       -6.2078193410  MEMB      199             0.0000000000
     24761       199  23SM      H20G          -35.5977434971      -32.2840007237       -5.8173385934  MEMB      199             0.0000000000
     24762       199  23SM      C21F          -36.1492325723      -33.6995090308       -4.2558514495  MEMB      199             0.0000000000
     24763       199  23SM      H21F          -36.5628477376      -34.7258149652       -4.1561527363  MEMB      199             0.0000000000
     24764       199  23SM      H21G          -36.9571901248      -33.0761977838       -3.8165233176  MEMB      199             0.0000000000
     24765       199  23SM      C22F          -34.8532093277      -33.6531193537       -3.5204567478  MEMB      199             0.0000000000
     24766       199  23SM      H22F          -34.2922470381      -32.7053355189       -3.6665682097  MEMB      199             0.0000000000
     24767       199  23SM      H22G          -34.1271782370      -34.3681758101       -3.9630555187  MEMB      199             0.0000000000
     24768       199  23SM      C23F          -35.0783925042      -33.9661986522       -2.0337336311  MEMB      199             0.0000000000
     24769       199  23SM      H23F          -34.2106387564      -33.6378488896       -1.4225796514  MEMB      199             0.0000000000
     24770       199  23SM      H23G          -35.3855400627      -35.0322997035       -1.9753413263  MEMB      199             0.0000000000
     24771       199  23SM      H23H          -36.0287210416      -33.5110527542       -1.6815429301  MEMB      199             0.0000000000
     24772       200  DOPE      N              38.6480924068       37.6278921921      -19.1164700888  MEMB      200             0.0000000000
     24773       200  DOPE      HN1            38.3488166648       37.1770903529      -20.0046208221  MEMB      200             0.0000000000
     24774       200  DOPE      HN2            38.9408066198       38.6199165838      -19.2251259724  MEMB      200             0.0000000000
     24775       200  DOPE      HN3            39.4163909564       37.0813484537      -18.6775999550  MEMB      200             0.0000000000
     24776       200  DOPE      C12            37.3595099246       37.5124821630      -18.2801403058  MEMB      200             0.0000000000
     24777       200  DOPE      H12A           36.6083184874       38.0383077623      -18.9074680746  MEMB      200             0.0000000000
     24778       200  DOPE      H12B           37.6050877020       38.0446434552      -17.3363092707  MEMB      200             0.0000000000
     24779       200  DOPE      C11            36.8304842055       36.1403433317      -18.1584993991  MEMB      200             0.0000000000
     24780       200  DOPE      H11A           35.7394272620       36.2071409264      -17.9598694456  MEMB      200             0.0000000000
     24781       200  DOPE      H11B           37.4043927459       35.5939513878      -17.3797788097  MEMB      200             0.0000000000
     24782       200  DOPE      P              37.0331339214       33.8759092821      -19.3046375039  MEMB      200             0.0000000000
     24783       200  DOPE      O13            38.2850687940       33.4630375027      -18.5875062186  MEMB      200             0.0000000000
     24784       200  DOPE      O14            36.8086892304       33.2603090267      -20.6307381672  MEMB      200             0.0000000000
     24785       200  DOPE      O11            35.7939393516       33.5881805404      -18.4982199260  MEMB      200             0.0000000000
     24786       200  DOPE      O12            37.0037680569       35.4814331594      -19.4237883908  MEMB      200             0.0000000000
     24787       200  DOPE      C1             34.4838499696       33.8262001519      -19.0970893229  MEMB      200             0.0000000000
     24788       200  DOPE      HA             34.4086374627       33.4511539483      -20.1401637776  MEMB      200             0.0000000000
     24789       200  DOPE      HB             34.2933526494       34.9160703834      -19.1981571305  MEMB      200             0.0000000000
     24790       200  DOPE      C2             33.3595589065       33.0339896250      -18.4839935508  MEMB      200             0.0000000000
     24791       200  DOPE      HS             32.4069901081       33.2159080247      -19.0260630371  MEMB      200             0.0000000000
     24792       200  DOPE      O21            33.2166736146       33.4059055127      -17.0723804159  MEMB      200             0.0000000000
     24793       200  DOPE      C21            32.8197495397       34.5958627504      -16.8172847396  MEMB      200             0.0000000000
     24794       200  DOPE      O22            32.5942789547       35.5113175106      -17.5570918067  MEMB      200             0.0000000000
     24795       200  DOPE      C22            32.7640731920       34.9021281476      -15.2739768257  MEMB      200             0.0000000000
     24796       200  DOPE      H2R            32.6639200551       33.9323695847      -14.7411929333  MEMB      200             0.0000000000
     24797       200  DOPE      H2S            31.8164412100       35.4412929550      -15.0603994169  MEMB      200             0.0000000000
     24798       200  DOPE      C3             33.5984296398       31.4758778001      -18.5985626883  MEMB      200             0.0000000000
     24799       200  DOPE      HX             33.3953696545       31.1037770050      -19.6255138117  MEMB      200             0.0000000000
     24800       200  DOPE      HY             33.0032077099       30.7699324896      -17.9807658792  MEMB      200             0.0000000000
     24801       200  DOPE      O31            34.9616898983       31.1878099802      -18.1963541482  MEMB      200             0.0000000000
     24802       200  DOPE      C31            35.2503561781       30.9110149940      -16.9500709508  MEMB      200             0.0000000000
     24803       200  DOPE      O32            34.4514660245       30.7509006323      -16.0308342780  MEMB      200             0.0000000000
     24804       200  DOPE      C32            36.7959164029       30.8239808604      -16.7560874052  MEMB      200             0.0000000000
     24805       200  DOPE      H2X            37.3021119090       30.2404553681      -17.5545769590  MEMB      200             0.0000000000
     24806       200  DOPE      H2Y            37.2695082785       31.8210693098      -16.8819684542  MEMB      200             0.0000000000
     24807       200  DOPE      C23            34.1236984391       35.5232946675      -14.9139039486  MEMB      200             0.0000000000
     24808       200  DOPE      H3R            34.1719422991       36.5594108870      -15.3119701775  MEMB      200             0.0000000000
     24809       200  DOPE      H3S            34.8723927937       34.7798128638      -15.2617725096  MEMB      200             0.0000000000
     24810       200  DOPE      C24            34.1685354746       35.6921262207      -13.3784357822  MEMB      200             0.0000000000
     24811       200  DOPE      H4R            33.6475689169       34.8041935947      -12.9607154659  MEMB      200             0.0000000000
     24812       200  DOPE      H4S            33.7311885210       36.6275902823      -12.9686120397  MEMB      200             0.0000000000
     24813       200  DOPE      C25            35.6241741202       35.6076541945      -12.9578216794  MEMB      200             0.0000000000
     24814       200  DOPE      H5R            36.3030316758       36.3676352751      -13.4004301618  MEMB      200             0.0000000000
     24815       200  DOPE      H5S            36.0297544118       34.6516915590      -13.3527410542  MEMB      200             0.0000000000
     24816       200  DOPE      C26            35.7998564991       35.5696919293      -11.4550797769  MEMB      200             0.0000000000
     24817       200  DOPE      H6R            36.8056894219       35.1372240148      -11.2664195992  MEMB      200             0.0000000000
     24818       200  DOPE      H6S            35.0626565728       34.9051713883      -10.9558105457  MEMB      200             0.0000000000
     24819       200  DOPE      C27            35.6029418284       36.9841165124      -10.8721668651  MEMB      200             0.0000000000
     24820       200  DOPE      H7R            34.7775907685       37.6056744288      -11.2805570351  MEMB      200             0.0000000000
     24821       200  DOPE      H7S            36.5828949587       37.5042470498      -10.9311332913  MEMB      200             0.0000000000
     24822       200  DOPE      C28            35.3341389114       36.7769477877       -9.4067928902  MEMB      200             0.0000000000
     24823       200  DOPE      H8R            35.6718088206       37.6767342934       -8.8494023455  MEMB      200             0.0000000000
     24824       200  DOPE      H8S            36.0487618637       36.0070128240       -9.0450816272  MEMB      200             0.0000000000
     24825       200  DOPE      C29            33.8561895438       36.5356844611       -9.1445391800  MEMB      200             0.0000000000
     24826       200  DOPE      H9R            33.1891671749       37.2056399591       -9.7068920441  MEMB      200             0.0000000000
     24827       200  DOPE      C210           33.4204528313       35.4532859623       -8.4109778585  MEMB      200             0.0000000000
     24828       200  DOPE      H10R           32.3352039641       35.3128465306       -8.2991209030  MEMB      200             0.0000000000
     24829       200  DOPE      C211           34.2720760680       34.4356944354       -7.8320726473  MEMB      200             0.0000000000
     24830       200  DOPE      H11R           35.1732401368       34.1464930616       -8.4139543021  MEMB      200             0.0000000000
     24831       200  DOPE      H11S           33.7586035138       33.4590482365       -7.7023464826  MEMB      200             0.0000000000
     24832       200  DOPE      C212           34.7643522917       34.8588939872       -6.4196159708  MEMB      200             0.0000000000
     24833       200  DOPE      H12R           35.3183508919       35.8187411229       -6.4977185860  MEMB      200             0.0000000000
     24834       200  DOPE      H12S           35.5758796839       34.1407284004       -6.1747027302  MEMB      200             0.0000000000
     24835       200  DOPE      C213           33.7057614161       34.7899854453       -5.3027730019  MEMB      200             0.0000000000
     24836       200  DOPE      H13R           33.4291724350       33.7175022311       -5.2155996471  MEMB      200             0.0000000000
     24837       200  DOPE      H13S           32.7438285997       35.2558313666       -5.6060766307  MEMB      200             0.0000000000
     24838       200  DOPE      C214           34.1885362235       35.2913027230       -3.9299656838  MEMB      200             0.0000000000
     24839       200  DOPE      H14R           35.0906218971       34.7343823252       -3.5976971450  MEMB      200             0.0000000000
     24840       200  DOPE      H14S           33.3897167530       35.1603785883       -3.1690012882  MEMB      200             0.0000000000
     24841       200  DOPE      C215           34.4637892989       36.8642960341       -3.8551614357  MEMB      200             0.0000000000
     24842       200  DOPE      H15R           35.2419429985       37.1689722570       -4.5872611147  MEMB      200             0.0000000000
     24843       200  DOPE      H15S           34.9285359254       37.2413739028       -2.9191356333  MEMB      200             0.0000000000
     24844       200  DOPE      C216           33.2037503337       37.7121594085       -4.1261547812  MEMB      200             0.0000000000
     24845       200  DOPE      H16R           32.4233831122       37.4423946923       -3.3828005050  MEMB      200             0.0000000000
     24846       200  DOPE      H16S           32.6798910025       37.4080461469       -5.0575012754  MEMB      200             0.0000000000
     24847       200  DOPE      C217           33.5941907282       39.1808596081       -4.2591786866  MEMB      200             0.0000000000
     24848       200  DOPE      H17R           32.6039991897       39.6694859242       -4.3820042540  MEMB      200             0.0000000000
     24849       200  DOPE      H17S           34.1205894223       39.3311478824       -5.2259457736  MEMB      200             0.0000000000
     24850       200  DOPE      C218           34.3200447663       39.7472390960       -3.1195208228  MEMB      200             0.0000000000
     24851       200  DOPE      H18R           34.4847600997       40.8318706459       -3.2949174988  MEMB      200             0.0000000000
     24852       200  DOPE      H18S           35.3437706099       39.3295353577       -3.0107544352  MEMB      200             0.0000000000
     24853       200  DOPE      H18T           33.7462710576       39.5362552736       -2.1918415564  MEMB      200             0.0000000000
     24854       200  DOPE      C33            37.2571189774       30.1928348932      -15.3892192041  MEMB      200             0.0000000000
     24855       200  DOPE      H3X            38.3629983615       30.2905232911      -15.4317498908  MEMB      200             0.0000000000
     24856       200  DOPE      H3Y            36.9100039563       29.1376206561      -15.3703818218  MEMB      200             0.0000000000
     24857       200  DOPE      C34            36.8667831123       31.0588947791      -14.1849746842  MEMB      200             0.0000000000
     24858       200  DOPE      H4X            36.8070507952       32.0911591254      -14.5914017469  MEMB      200             0.0000000000
     24859       200  DOPE      H4Y            35.8144803874       30.9198900418      -13.8568625747  MEMB      200             0.0000000000
     24860       200  DOPE      C35            37.8679237112       30.8441440618      -13.0720773469  MEMB      200             0.0000000000
     24861       200  DOPE      H5X            38.8968028478       31.0718464975      -13.4240438712  MEMB      200             0.0000000000
     24862       200  DOPE      H5Y            37.7368937951       29.8262666803      -12.6465448642  MEMB      200             0.0000000000
     24863       200  DOPE      C36            37.7500529420       31.7284359017      -11.7875110694  MEMB      200             0.0000000000
     24864       200  DOPE      H6X            36.8433584676       31.3213836509      -11.2909885817  MEMB      200             0.0000000000
     24865       200  DOPE      H6Y            37.4539090150       32.7482191953      -12.1141014983  MEMB      200             0.0000000000
     24866       200  DOPE      C37            38.9519635277       31.7962401743      -10.7961341776  MEMB      200             0.0000000000
     24867       200  DOPE      H7X            39.4726742575       30.8149688536      -10.8130964204  MEMB      200             0.0000000000
     24868       200  DOPE      H7Y            39.8441473190       32.4024462437      -11.0622984032  MEMB      200             0.0000000000
     24869       200  DOPE      C38            38.5333254886       31.9870779190       -9.2671537288  MEMB      200             0.0000000000
     24870       200  DOPE      H8X            39.3951415517       31.7190823711       -8.6192558597  MEMB      200             0.0000000000
     24871       200  DOPE      H8Y            37.8594006140       31.1520222648       -8.9793558153  MEMB      200             0.0000000000
     24872       200  DOPE      C39            37.8310949998       33.3117737000       -8.8914841291  MEMB      200             0.0000000000
     24873       200  DOPE      H9X            37.0355005986       33.5683688597       -9.6064580811  MEMB      200             0.0000000000
     24874       200  DOPE      C310           38.0974730131       34.1978994513       -7.8582211467  MEMB      200             0.0000000000
     24875       200  DOPE      H10X           37.6021948293       35.1782500292       -7.9183257007  MEMB      200             0.0000000000
     24876       200  DOPE      C311           39.1652251163       34.0641945431       -6.8418427320  MEMB      200             0.0000000000
     24877       200  DOPE      H11X           39.8845193282       33.2287084309       -6.9793199199  MEMB      200             0.0000000000
     24878       200  DOPE      H11Y           39.7594179287       34.9733078265       -7.0758698599  MEMB      200             0.0000000000
     24879       200  DOPE      C312           38.7171540495       33.9494856091       -5.4088465384  MEMB      200             0.0000000000
     24880       200  DOPE      H12X           38.0240534674       34.7482495583       -5.0683922515  MEMB      200             0.0000000000
     24881       200  DOPE      H12Y           39.5560406014       34.1688873648       -4.7142580682  MEMB      200             0.0000000000
     24882       200  DOPE      C313           38.1297131396       32.5570013637       -5.0094041220  MEMB      200             0.0000000000
     24883       200  DOPE      H13X           37.0577172091       32.5066214262       -5.2968199803  MEMB      200             0.0000000000
     24884       200  DOPE      H13Y           38.7058323584       31.8821948007       -5.6780170501  MEMB      200             0.0000000000
     24885       200  DOPE      C314           38.3276655974       32.1084214424       -3.5308460558  MEMB      200             0.0000000000
     24886       200  DOPE      H14X           39.3827119894       32.1396796521       -3.1841169602  MEMB      200             0.0000000000
     24887       200  DOPE      H14Y           38.0929209665       31.0297564956       -3.4055550388  MEMB      200             0.0000000000
     24888       200  DOPE      C315           37.3972675373       32.8613586258       -2.5014678524  MEMB      200             0.0000000000
     24889       200  DOPE      H15X           37.7383023890       32.5030489343       -1.5066677013  MEMB      200             0.0000000000
     24890       200  DOPE      H15Y           36.3193929548       32.6280305056       -2.6358761844  MEMB      200             0.0000000000
     24891       200  DOPE      C316           37.8333454097       34.3463006653       -2.3155067239  MEMB      200             0.0000000000
     24892       200  DOPE      H16X           37.4450546296       34.9607054053       -3.1557786817  MEMB      200             0.0000000000
     24893       200  DOPE      H16Y           38.9358868578       34.2302394062       -2.3879852260  MEMB      200             0.0000000000
     24894       200  DOPE      C317           37.4702281613       35.1133659530       -1.0703551536  MEMB      200             0.0000000000
     24895       200  DOPE      H17X           36.4392295674       34.7726235441       -0.8352851322  MEMB      200             0.0000000000
     24896       200  DOPE      H17Y           38.1479262573       34.5887263824       -0.3633898768  MEMB      200             0.0000000000
     24897       200  DOPE      C318           37.6686825569       36.6710066550       -1.0544429787  MEMB      200             0.0000000000
     24898       200  DOPE      H18X           38.7521913205       36.9124600015       -1.0994965831  MEMB      200             0.0000000000
     24899       200  DOPE      H18Y           37.1807975574       37.1678494401       -1.9201421967  MEMB      200             0.0000000000
     24900       200  DOPE      H18Z           37.3119508773       37.1299787133       -0.1076542105  MEMB      200             0.0000000000
