* GENERATED BY CHARMM-GUI (HTTP://WWW.CHARMM-GUI.ORG) V3.7 ON JUL, 11. 2024. JOB
* GET A DIFFERENT CONFORMATION FOR LIPIDS PENETRATING PROTEIN / CHOL
*  DATE:     7/11/24      0:32:30      CREATED BY USER: apache
*
       210  EXT
         1         1  TIP3      OH2             2.5503692127       10.2125410833       19.7277550000  TIP3      1               0.0000000000
         2         1  TIP3      H1              2.3971389810        9.3558389902       19.3292450000  TIP3      1               0.0000000000
         3         1  TIP3      H2              2.5023663131       10.0509716653       20.6699950000  TIP3      1               0.0000000000
         4         2  TIP3      OH2             2.6634267379        6.9750862386       21.3815650000  TIP3      2               0.0000000000
         5         2  TIP3      H1              1.8082059760        6.7350149917       21.7381950000  TIP3      2               0.0000000000
         6         2  TIP3      H2              2.4928565707        7.1710311383       20.4602950000  TIP3      2               0.0000000000
         7         3  TIP3      OH2           -10.0408917150        5.8631214072       19.9356400000  TIP3      3               0.0000000000
         8         3  TIP3      H1             -9.5677297545        6.6905678616       20.0232700000  TIP3      3               0.0000000000
         9         3  TIP3      H2            -10.8489004321        6.0959733869       19.4783200000  TIP3      3               0.0000000000
        10         4  TIP3      OH2           -13.8021683360        8.7321581508       20.2276100000  TIP3      4               0.0000000000
        11         4  TIP3      H1            -14.1804313952        9.6076981061       20.1464500000  TIP3      4               0.0000000000
        12         4  TIP3      H2            -13.2987080715        8.7627166207       21.0411400000  TIP3      4               0.0000000000
        13         5  TIP3      OH2           -15.2841106986       -9.4850315767       20.0623400000  TIP3      5               0.0000000000
        14         5  TIP3      H1            -15.0624274076       -8.6997218800       20.5627100000  TIP3      5               0.0000000000
        15         5  TIP3      H2            -14.9084540803       -9.3312434793       19.1954700000  TIP3      5               0.0000000000
        16         6  TIP3      OH2            22.0782079711        2.2374227577       22.0092200000  TIP3      6               0.0000000000
        17         6  TIP3      H1             22.5626458753        3.0198093897       21.7457700000  TIP3      6               0.0000000000
        18         6  TIP3      H2             22.4744268553        1.5280868064       21.5031700000  TIP3      6               0.0000000000
        19         7  TIP3      OH2            19.7392636416        1.9434381444       18.3193700000  TIP3      7              21.0400000000
        20         7  TIP3      H1             20.6754978624        2.0801414881       18.1743800000  TIP3      7               0.0000000000
        21         7  TIP3      H2             19.3310668896        2.7631726667       18.0407500000  TIP3      7               0.0000000000
        22         8  TIP3      OH2            23.3305588082        0.8381431988       20.1281300000  TIP3      8               0.0000000000
        23         8  TIP3      H1             24.0793429278        1.4311981258       20.0662400000  TIP3      8               0.0000000000
        24         8  TIP3      H2             23.7172492092       -0.0374784720       20.1276600000  TIP3      8               0.0000000000
        25         9  TIP3      OH2           -21.4563162066      -13.9781736136       20.3715300000  TIP3      9               0.0000000000
        26         9  TIP3      H1            -20.9024994500      -13.8222630516       19.6065400000  TIP3      9               0.0000000000
        27         9  TIP3      H2            -22.3395546898      -13.7547364932       20.0779300000  TIP3      9               0.0000000000
        28        10  TIP3      OH2            24.2211844154      -14.7779026225       19.9084000000  TIP3      10              0.0000000000
        29        10  TIP3      H1             23.3458750193      -14.5432797461       19.6001500000  TIP3      10              0.0000000000
        30        10  TIP3      H2             24.0751705234      -15.5022185775       20.5169100000  TIP3      10              0.0000000000
        31        11  TIP3      OH2            19.4267424871      -12.9057434635       19.7545400000  TIP3      11              0.0000000000
        32        11  TIP3      H1             19.2459653070      -12.2918427984       20.4663500000  TIP3      11              0.0000000000
        33        11  TIP3      H2             18.6600397733      -13.4783138783       19.7309100000  TIP3      11              0.0000000000
        34        12  TIP3      OH2            -8.7050117930       24.1617689498       20.1272150000  TIP3      12              0.0000000000
        35        12  TIP3      H1             -7.7811492816       24.1371095176       20.3763950000  TIP3      12              0.0000000000
        36        12  TIP3      H2             -9.0461515613       24.9508274862       20.5482250000  TIP3      12              0.0000000000
        37        13  TIP3      OH2           -10.4873088162       22.2611976201       19.6478150000  TIP3      13              0.0000000000
        38        13  TIP3      H1            -10.3451678685       21.3580980482       19.9314550000  TIP3      13              0.0000000000
        39        13  TIP3      H2             -9.6525388824       22.6991187686       19.8139550000  TIP3      13              0.0000000000
        40        14  TIP3      OH2           -12.2074881198       26.8826418929       20.2370350000  TIP3      14              0.0000000000
        41        14  TIP3      H1            -12.2675149855       27.6776355726       19.7072950000  TIP3      14              0.0000000000
        42        14  TIP3      H2            -11.9553098958       26.1990808850       19.6162450000  TIP3      14              0.0000000000
        43        15  TIP3      OH2           -24.3833111772       18.9264480588       20.5249900000  TIP3      15              0.0000000000
        44        15  TIP3      H1            -24.7480697021       18.0593641414       20.7020300000  TIP3      15              0.0000000000
        45        15  TIP3      H2            -23.8027556834       19.0985106019       21.2663300000  TIP3      15              0.0000000000
        46        16  TIP3      OH2           -27.8940163963       17.7689827284       19.8672200000  TIP3      16              0.0000000000
        47        16  TIP3      H1            -27.1509654233       17.5238133574       20.4185800000  TIP3      16              0.0000000000
        48        16  TIP3      H2            -27.9465731080       18.7215676011       19.9450100000  TIP3      16              0.0000000000
        49        17  TIP3      OH2           -25.8995184058       16.4948242035       21.2430900000  TIP3      17              0.0000000000
        50        17  TIP3      H1            -25.6593254330       16.3214921804       20.3328800000  TIP3      17              0.0000000000
        51        17  TIP3      H2            -25.4645860203       15.8032785167       21.7419200000  TIP3      17              0.0000000000
        52        18  TIP3      OH2           -26.6550543871       13.6133386618       19.8645000000  TIP3      18              0.0000000000
        53        18  TIP3      H1            -26.0611268158       13.8284501310       20.5836800000  TIP3      18              0.0000000000
        54        18  TIP3      H2            -26.2315873400       12.8826742964       19.4139100000  TIP3      18              0.0000000000
        55        19  TIP3      OH2            -4.1428884054      -32.0614903563       20.6754700000  TIP3      19              0.0000000000
        56        19  TIP3      H1             -4.2342208252      -31.4747945649       21.4262500000  TIP3      19              0.0000000000
        57        19  TIP3      H2             -4.3903717326      -32.9226078978       21.0123200000  TIP3      19              0.0000000000
        58        20  TIP3      OH2           -32.1274649833       15.0555105852       19.8787300000  TIP3      20              0.0000000000
        59        20  TIP3      H1            -32.2024590355       14.1827528391       19.4928700000  TIP3      20              0.0000000000
        60        20  TIP3      H2            -32.7727618932       15.5825227241       19.4074700000  TIP3      20              0.0000000000
        61        21  TIP3      OH2            17.8644677387       31.8726190773       19.4433500000  TIP3      21            -31.2400000000
        62        21  TIP3      H1             16.9481397443       31.9971451462       19.1962300000  TIP3      21            -31.3700000000
        63        21  TIP3      H2             18.2609658532       32.7375027771       19.3385300000  TIP3      21            -32.1200000000
        64        22  TIP3      OH2           -19.4559002711      -33.7500281657       20.1424000000  TIP3      22              0.0000000000
        65        22  TIP3      H1            -19.5724126105      -33.7870142668       21.0917600000  TIP3      22              0.0000000000
        66        22  TIP3      H2            -18.5075136184      -33.7127895640       20.0182800000  TIP3      22              0.0000000000
        67        23  TIP3      OH2           -11.4166531440      -37.3492706667       20.5406400000  TIP3      23              0.0000000000
        68        23  TIP3      H1            -10.7095784560      -37.4388572348       21.1795800000  TIP3      23              0.0000000000
        69        23  TIP3      H2            -12.2065551738      -37.5987030550       21.0202800000  TIP3      23              0.0000000000
        70        24  TIP3      OH2           -13.6037572533      -35.1425786716       21.3368900000  TIP3      24              0.0000000000
        71        24  TIP3      H1            -14.1279984517      -34.3436131966       21.3922000000  TIP3      24              0.0000000000
        72        24  TIP3      H2            -13.2977186175      -35.1665159628       20.4302500000  TIP3      24              0.0000000000
        73        25  TIP3      OH2            14.0048246984      -36.7390080862       20.4798900000  TIP3      25              0.0000000000
        74        25  TIP3      H1             14.0786241874      -36.0330119601       19.8377500000  TIP3      25              0.0000000000
        75        25  TIP3      H2             14.8233031465      -36.6999348925       20.9746600000  TIP3      25              0.0000000000
        76        26  TIP3      OH2            15.9058324520      -32.2063146453       19.3723700000  TIP3      26              0.0000000000
        77        26  TIP3      H1             16.6071519902      -31.7976932634       18.8650200000  TIP3      26              0.0000000000
        78        26  TIP3      H2             15.8444070921      -31.6763372556       20.1670900000  TIP3      26              0.0000000000
        79        27  TIP3      OH2            33.6009506913      -20.1366968454       19.8605000000  TIP3      27              0.0000000000
        80        27  TIP3      H1             32.8902137247      -19.7215032738       19.3719400000  TIP3      27              0.0000000000
        81        27  TIP3      H2             33.9656612288      -19.4334459506       20.3977700000  TIP3      27              0.0000000000
        82        28  TIP3      OH2            36.6279920463      -21.8206061025       21.3142200000  TIP3      28              0.0000000000
        83        28  TIP3      H1             36.6175597452      -20.8672817722       21.2288100000  TIP3      28              0.0000000000
        84        28  TIP3      H2             35.7080493760      -22.0773167885       21.2508300000  TIP3      28              0.0000000000
        85        29  TIP3      OH2            35.1082580403      -27.8718866203       16.8264300000  TIP3      29              0.0000000000
        86        29  TIP3      H1             34.4456740694      -28.4033978476       16.3851600000  TIP3      29              0.0000000000
        87        29  TIP3      H2             35.6901684666      -28.5090590634       17.2407000000  TIP3      29              0.0000000000
        88        30  TIP3      OH2           -28.5731286498      -35.9609264381       20.0518100000  TIP3      30              0.0000000000
        89        30  TIP3      H1            -29.4183572306      -36.3281263325       19.7929700000  TIP3      30              0.0000000000
        90        30  TIP3      H2            -28.7861912542      -35.1018817200       20.4163300000  TIP3      30              0.0000000000
        91        31  TIP3      OH2           -24.0191459095      -33.4045663304       18.5711000000  TIP3      31              0.0000000000
        92        31  TIP3      H1            -23.2592064393      -33.5750864537       19.1275700000  TIP3      31              0.0000000000
        93        31  TIP3      H2            -24.4754976095      -34.2446632474       18.5240700000  TIP3      31              0.0000000000
        94        32  TIP3      OH2             3.5471517074       -1.4580946917      -21.2385800000  TIP3      32              0.0000000000
        95        32  TIP3      H1              3.9321726098       -1.4679959691      -20.3622900000  TIP3      32              0.0000000000
        96        32  TIP3      H2              3.3672140556       -0.5339402098      -21.4112200000  TIP3      32              0.0000000000
        97        33  TIP3      OH2             6.3002949761        1.0417277121      -20.7142500000  TIP3      33              0.0000000000
        98        33  TIP3      H1              5.5993522290        1.6047522417      -21.0427600000  TIP3      33              0.0000000000
        99        33  TIP3      H2              7.1070074958        1.4929879734      -20.9628600000  TIP3      33              0.0000000000
       100        34  TIP3      OH2            12.0756023199       -1.8170220139      -19.1457750000  TIP3      34              0.0000000000
       101        34  TIP3      H1             12.1006358458       -1.0032087364      -18.6424750000  TIP3      34              0.0000000000
       102        34  TIP3      H2             11.5531969568       -1.6048638034      -19.9192750000  TIP3      34              0.0000000000
       103        35  TIP3      OH2            12.0541973243        3.6994772461      -19.1500950000  TIP3      35              0.0000000000
       104        35  TIP3      H1             12.5987495470        4.4861843200      -19.1218950000  TIP3      35              0.0000000000
       105        35  TIP3      H2             11.2460070608        3.9822405495      -19.5779950000  TIP3      35              0.0000000000
       106        36  TIP3      OH2            -5.7981885661       13.9122056764      -19.1116350000  TIP3      36              0.0000000000
       107        36  TIP3      H1             -5.8421550623       13.0124284257      -19.4352150000  TIP3      36              0.0000000000
       108        36  TIP3      H2             -6.5231560787       14.3598089281      -19.5478850000  TIP3      36              0.0000000000
       109        37  TIP3      OH2            -0.8269014894       13.8906908064      -20.3449550000  TIP3      37              0.0000000000
       110        37  TIP3      H1             -0.7494214891       14.8396337722      -20.4435550000  TIP3      37              0.0000000000
       111        37  TIP3      H2             -1.4623188905       13.7738820184      -19.6386850000  TIP3      37              0.0000000000
       112        38  TIP3      OH2             7.1185709263       14.9418073935      -19.9258400000  TIP3      38              0.0000000000
       113        38  TIP3      H1              6.4460462852       14.5709403622      -19.3545300000  TIP3      38              0.0000000000
       114        38  TIP3      H2              7.0849077648       15.8832876306      -19.7563900000  TIP3      38              0.0000000000
       115        39  TIP3      OH2             5.1448264818       11.7009577588      -20.1729000000  TIP3      39              0.0000000000
       116        39  TIP3      H1              4.3021116203       11.8453692084      -20.6032500000  TIP3      39              0.0000000000
       117        39  TIP3      H2              5.7540391160       11.5270816394      -20.8904300000  TIP3      39              0.0000000000
       118        40  TIP3      OH2            -9.4901746235       13.8179332617      -20.0963700000  TIP3      40              0.0000000000
       119        40  TIP3      H1            -10.4074818480       14.0635626139      -20.2166000000  TIP3      40              0.0000000000
       120        40  TIP3      H2             -9.5228623377       12.9142354895      -19.7825500000  TIP3      40              0.0000000000
       121        41  TIP3      OH2           -14.4692408929       14.6389795877      -20.9234700000  TIP3      41              0.0000000000
       122        41  TIP3      H1            -14.4258836493       13.9554973256      -21.5922100000  TIP3      41              0.0000000000
       123        41  TIP3      H2            -14.9236681023       14.2271639810      -20.1885400000  TIP3      41              0.0000000000
       124        42  TIP3      OH2           -12.1911619024       16.8366854598      -19.0215500000  TIP3      42              0.0000000000
       125        42  TIP3      H1            -12.7910190860       16.9878591886      -19.7520000000  TIP3      42              0.0000000000
       126        42  TIP3      H2            -12.2814702914       15.9040542151      -18.8259200000  TIP3      42              0.0000000000
       127        43  TIP3      OH2           -12.9986249269       11.7352573482      -20.4254800000  TIP3      43              0.0000000000
       128        43  TIP3      H1            -13.1196491433       10.8034582433      -20.2429400000  TIP3      43              0.0000000000
       129        43  TIP3      H2            -12.7649670364       11.7697218691      -21.3530800000  TIP3      43              0.0000000000
       130        44  TIP3      OH2           -11.7785693197       14.6808213745      -21.4837000000  TIP3      44              0.0000000000
       131        44  TIP3      H1            -11.7629816977       13.9425288486      -22.0927200000  TIP3      44              0.0000000000
       132        44  TIP3      H2            -12.6719244196       14.6896534054      -21.1400800000  TIP3      44              0.0000000000
       133        45  TIP3      OH2           -13.2425766446      -23.0113465335      -17.3062000000  TIP3      45              0.0000000000
       134        45  TIP3      H1            -13.6014820120      -23.3555013856      -18.1241000000  TIP3      45              0.0000000000
       135        45  TIP3      H2            -13.3149224705      -22.0608933384      -17.3935200000  TIP3      45              0.0000000000
       136        46  TIP3      OH2           -13.5398273711      -20.5306492181      -18.0522000000  TIP3      46              0.0000000000
       137        46  TIP3      H1            -14.0244278819      -20.4537829476      -18.8740800000  TIP3      46              0.0000000000
       138        46  TIP3      H2            -13.9154223130      -19.8547262460      -17.4880200000  TIP3      46              0.0000000000
       139        47  TIP3      OH2           -19.2321347143      -22.8982706073      -19.7272000000  TIP3      47              0.0000000000
       140        47  TIP3      H1            -19.8292532354      -23.5647766205      -20.0669600000  TIP3      47              0.0000000000
       141        47  TIP3      H2            -18.3921899792      -23.0945844226      -20.1421400000  TIP3      47              0.0000000000
       142        48  TIP3      OH2           -16.6974014270      -23.0458184391      -20.7678700000  TIP3      48              0.0000000000
       143        48  TIP3      H1            -16.3994336413      -23.0590588429      -21.6774200000  TIP3      48              0.0000000000
       144        48  TIP3      H2            -16.2199759089      -23.7616510609      -20.3484900000  TIP3      48              0.0000000000
       145        49  TIP3      OH2           -17.5784544559      -18.4524953755      -20.0894900000  TIP3      49              0.0000000000
       146        49  TIP3      H1            -17.6164452862      -19.4048317565      -20.0010300000  TIP3      49              0.0000000000
       147        49  TIP3      H2            -18.4035067326      -18.1435980709      -19.7151800000  TIP3      49              0.0000000000
       148        50  TIP3      OH2           -15.0029190240      -20.6923609994      -20.2829800000  TIP3      50              0.0000000000
       149        50  TIP3      H1            -15.7042041030      -21.0100921501      -19.7142300000  TIP3      50              0.0000000000
       150        50  TIP3      H2            -14.6870008243      -21.4749972370      -20.7345500000  TIP3      50              0.0000000000
       151        51  TIP3      OH2            19.5395045391       22.1766174875      -20.4983950000  TIP3      51              0.0000000000
       152        51  TIP3      H1             19.1940509032       22.7556237789      -21.1778550000  TIP3      51              0.0000000000
       153        51  TIP3      H2             20.3965209092       22.5443448977      -20.2826850000  TIP3      51              0.0000000000
       154        52  TIP3      OH2            -9.9769644094       27.1905235541      -20.5886200000  TIP3      52              0.0000000000
       155        52  TIP3      H1             -9.1763617587       27.6612472784      -20.8203000000  TIP3      52              0.0000000000
       156        52  TIP3      H2             -9.7057195663       26.2751512473      -20.5196400000  TIP3      52              0.0000000000
       157        53  TIP3      OH2           -14.5949211362       28.5589717280      -19.2060600000  TIP3      53              0.0000000000
       158        53  TIP3      H1            -13.9241305144       27.8859749414      -19.0904900000  TIP3      53              0.0000000000
       159        53  TIP3      H2            -15.1301573656       28.2418971525      -19.9335300000  TIP3      53              0.0000000000
       160        54  TIP3      OH2           -30.3976950620       16.4618021845      -19.9057450000  TIP3      54              0.0000000000
       161        54  TIP3      H1            -29.8890366798       17.2713801053      -19.9512950000  TIP3      54              0.0000000000
       162        54  TIP3      H2            -29.7409272598       15.7654581420      -19.9050850000  TIP3      54              0.0000000000
       163        55  TIP3      OH2           -32.3544493082       12.6050337770      -20.2015350000  TIP3      55              0.0000000000
       164        55  TIP3      H1            -31.4893179682       12.2147538878      -20.0771250000  TIP3      55              0.0000000000
       165        55  TIP3      H2            -32.8600674628       11.9290083770      -20.6527150000  TIP3      55              0.0000000000
       166        56  TIP3      OH2           -29.9980557381       10.9372237788      -20.3542550000  TIP3      56              0.0000000000
       167        56  TIP3      H1            -29.0542073216       11.0880709947      -20.3028950000  TIP3      56              0.0000000000
       168        56  TIP3      H2            -30.1345996768       10.1109142051      -19.8907850000  TIP3      56              0.0000000000
       169        57  TIP3      OH2             1.9566795598       34.0773322813      -19.8477600000  TIP3      57              0.0000000000
       170        57  TIP3      H1              1.1395741789       33.7889387788      -19.4410800000  TIP3      57              0.0000000000
       171        57  TIP3      H2              2.0995449012       33.4588112524      -20.5641800000  TIP3      57              0.0000000000
       172        58  TIP3      OH2            -2.3523824446       33.5600216914      -20.1482400000  TIP3      58              0.0000000000
       173        58  TIP3      H1             -1.5653014118       33.6774980016      -20.6801500000  TIP3      58              0.0000000000
       174        58  TIP3      H2             -2.9996125598       33.1987545982      -20.7538900000  TIP3      58              0.0000000000
       175        59  TIP3      OH2           -28.3007343578      -14.2334299887      -21.1091900000  TIP3      59            -29.1200000000
       176        59  TIP3      H1            -28.5337998473      -14.8049217480      -21.8408400000  TIP3      59            -29.7600000000
       177        59  TIP3      H2            -27.4310665562      -13.9012086782      -21.3317500000  TIP3      59            -29.4500000000
       178        60  TIP3      OH2           -31.6021029552      -13.8465160277      -21.1710100000  TIP3      60              0.0000000000
       179        60  TIP3      H1            -31.3426179940      -14.5176387865      -21.8022800000  TIP3      60              0.0000000000
       180        60  TIP3      H2            -31.2329524968      -14.1437448318      -20.3393800000  TIP3      60              0.0000000000
       181        61  TIP3      OH2            32.0680049095      -13.3118324085      -21.2176700000  TIP3      61            -32.9800000000
       182        61  TIP3      H1             32.9436958570      -12.9543890306      -21.0706100000  TIP3      61            -32.1900000000
       183        61  TIP3      H2             31.5914812911      -13.1193249923      -20.4101500000  TIP3      61            -33.6700000000
       184        62  TIP3      OH2            28.6553854027      -15.3455357783      -19.6802200000  TIP3      62              0.0000000000
       185        62  TIP3      H1             28.2753223858      -16.1020748634      -19.2336500000  TIP3      62              0.0000000000
       186        62  TIP3      H2             29.0845474079      -15.7134647444      -20.4526700000  TIP3      62              0.0000000000
       187        63  TIP3      OH2            29.8673538197      -10.5936253651      -19.2810000000  TIP3      63              0.0000000000
       188        63  TIP3      H1             30.0161037172      -11.5205114505      -19.0939500000  TIP3      63              0.0000000000
       189        63  TIP3      H2             29.4051825837      -10.2643888167      -18.5101400000  TIP3      63              0.0000000000
       190        64  TIP3      OH2            16.2245613131      -36.5902545279      -19.7912400000  TIP3      64              0.0000000000
       191        64  TIP3      H1             16.5718001071      -36.5659577617      -20.6829000000  TIP3      64              0.0000000000
       192        64  TIP3      H2             15.9768947259      -35.6845276083      -19.6053800000  TIP3      64              0.0000000000
       193        65  TIP3      OH2            19.3474349336      -36.2109779326      -19.8094300000  TIP3      65              0.0000000000
       194        65  TIP3      H1             19.5375535207      -37.1232242530      -20.0282600000  TIP3      65              0.0000000000
       195        65  TIP3      H2             18.4807623740      -36.2370617834      -19.4039200000  TIP3      65              0.0000000000
       196        66  TIP3      OH2            20.1997903923      -33.5795460089      -19.4233000000  TIP3      66              0.0000000000
       197        66  TIP3      H1             19.8572479522      -34.4627079037      -19.5609200000  TIP3      66              0.0000000000
       198        66  TIP3      H2             21.1238585220      -33.6401203472      -19.6654800000  TIP3      66              0.0000000000
       199        67  TIP3      OH2            31.6497631689      -27.1330390693      -20.9514400000  TIP3      67              0.0000000000
       200        67  TIP3      H1             31.0227641269      -27.0699211604      -20.2309300000  TIP3      67              0.0000000000
       201        67  TIP3      H2             31.1070561495      -27.1769712091      -21.7386900000  TIP3      67              0.0000000000
       202        68  TIP3      OH2           -35.1596283783       28.9972050741      -20.4484000000  TIP3      68              0.0000000000
       203        68  TIP3      H1            -35.6777181289       29.6495437163      -20.9198600000  TIP3      68              0.0000000000
       204        68  TIP3      H2            -35.6962986366       28.7669476175      -19.6899900000  TIP3      68              0.0000000000
       205        69  TIP3      OH2            35.1605511855      -36.0486377655      -20.3170750000  TIP3      69              0.0000000000
       206        69  TIP3      H1             34.7340613523      -36.4798755597      -21.0575950000  TIP3      69              0.0000000000
       207        69  TIP3      H2             35.7932749414      -35.4528377084      -20.7182350000  TIP3      69              0.0000000000
       208        70  TIP3      OH2            31.3108278096      -34.8582679652      -20.8541750000  TIP3      70              0.0000000000
       209        70  TIP3      H1             31.5353279622      -35.7690835876      -20.6637650000  TIP3      70              0.0000000000
       210        70  TIP3      H2             31.7757162655      -34.3521687605      -20.1878550000  TIP3      70              0.0000000000
